# vtk DataFile Version 3.0
Grid data
ASCII
DATASET STRUCTURED_POINTS
DIMENSIONS 16 128 1
ORIGIN 0 0 0
SPACING 0.015625 0.0078125 1
POINT_DATA 2048
SCALARS rho double
LOOKUP_TABLE default
1.00658
1.00657
1.00654
1.00648
1.00624
1.00569
1.00545
1.00544
1.00549
1.00573
1.00623
1.00634
1.00631
1.00627
1.00626
1.00624
0.999774
0.999787
0.999814
0.999779
0.999413
0.997863
0.996857
0.996809
0.997018
0.997954
0.999415
0.999554
0.999363
0.999198
0.999141
0.999101
0.989374
0.989409
0.989523
0.989709
0.989781
0.98917
0.988261
0.988342
0.988416
0.989407
0.989979
0.989747
0.989339
0.989149
0.989106
0.989072
0.981585
0.981626
0.981778
0.98211
0.982668
0.98564
0.987052
0.987183
0.987265
0.986051
0.98296
0.982391
0.982022
0.981886
0.981869
0.981863
0.980386
0.980433
0.980584
0.980996
0.981594
0.981119
0.981776
0.982176
0.981737
0.981368
0.981938
0.981334
0.980915
0.980791
0.980772
0.980767
0.976771
0.976806
0.976989
0.977334
0.977696
0.977432
0.978252
0.978574
0.978106
0.977329
0.977996
0.97782
0.977567
0.977463
0.977461
0.977475
0.973392
0.973425
0.973656
0.973969
0.97463
0.976199
0.97765
0.977988
0.977436
0.975865
0.975031
0.974844
0.974691
0.974611
0.974626
0.97466
0.971865
0.97189
0.972146
0.972735
0.97375
0.975166
0.976174
0.976433
0.975867
0.974811
0.973984
0.9738
0.97359
0.973485
0.973511
0.973558
0.972395
0.972408
0.972621
0.973079
0.97396
0.974987
0.975318
0.975431
0.975188
0.974683
0.974066
0.9738
0.973529
0.973386
0.973387
0.973434
0.973043
0.973019
0.973117
0.973291
0.973959
0.974633
0.974886
0.974949
0.97485
0.974593
0.974164
0.973834
0.973519
0.973326
0.973268
0.973283
0.973334
0.973295
0.973335
0.973429
0.973864
0.974427
0.974796
0.974931
0.974841
0.974567
0.974186
0.973853
0.973537
0.973339
0.973257
0.97327
0.973219
0.973191
0.973273
0.973382
0.973741
0.974175
0.974529
0.974712
0.974669
0.974429
0.974104
0.973778
0.973446
0.973184
0.973041
0.97304
0.973095
0.973077
0.973221
0.973342
0.97356
0.973852
0.974122
0.974324
0.974421
0.974307
0.973999
0.973659
0.973271
0.972954
0.972771
0.972725
0.973031
0.973008
0.973116
0.973189
0.973289
0.973456
0.973629
0.973793
0.973923
0.973907
0.973642
0.973356
0.972991
0.972632
0.972378
0.972325
0.973065
0.973014
0.973032
0.973103
0.973235
0.973396
0.973581
0.973682
0.973621
0.973482
0.973503
0.973285
0.972953
0.97262
0.972302
0.972198
0.973042
0.972981
0.972975
0.97301
0.973078
0.973128
0.97319
0.973167
0.973052
0.972934
0.972896
0.97276
0.972538
0.972305
0.972084
0.97197
0.973046
0.972988
0.97299
0.973015
0.973009
0.972971
0.972836
0.972638
0.972558
0.972402
0.972225
0.972075
0.971901
0.971825
0.971748
0.971686
0.972719
0.972643
0.972616
0.972619
0.972633
0.972515
0.9723
0.972044
0.971859
0.971739
0.97161
0.971404
0.971259
0.971228
0.971238
0.971216
0.972049
0.972
0.972067
0.972031
0.972061
0.971918
0.97171
0.971471
0.971263
0.971178
0.971102
0.971203
0.971215
0.971065
0.97087
0.970818
0.971375
0.97134
0.971414
0.971438
0.971416
0.971268
0.971094
0.970895
0.970716
0.970648
0.970571
0.970569
0.970476
0.97025
0.970083
0.970034
0.970977
0.970934
0.970952
0.970941
0.970868
0.97069
0.970498
0.970354
0.970193
0.970074
0.969922
0.969791
0.969629
0.969444
0.969325
0.969284
0.970804
0.970721
0.970717
0.970549
0.970358
0.97012
0.969874
0.96966
0.969469
0.969335
0.969142
0.968957
0.968821
0.968752
0.968779
0.968771
0.970638
0.970497
0.970372
0.970151
0.969943
0.969592
0.96924
0.96895
0.968737
0.968593
0.968383
0.968209
0.968148
0.968322
0.968468
0.96843
0.970114
0.969954
0.969841
0.969597
0.969383
0.96901
0.968644
0.968352
0.968107
0.967932
0.96774
0.967629
0.967556
0.967729
0.967962
0.968097
0.969473
0.96932
0.969271
0.969083
0.968842
0.968503
0.968157
0.967922
0.967807
0.967612
0.9675
0.967488
0.9675
0.967398
0.967367
0.967401
0.969099
0.968949
0.96893
0.968717
0.968444
0.968276
0.968084
0.967807
0.96747
0.967332
0.967232
0.967179
0.967108
0.966839
0.966576
0.966471
0.969385
0.969195
0.969055
0.968648
0.968253
0.967906
0.96754
0.967216
0.96719
0.967071
0.967011
0.966894
0.966682
0.966352
0.96606
0.965912
0.969824
0.969554
0.969195
0.968634
0.968041
0.96752
0.967017
0.966591
0.966418
0.966341
0.966303
0.966189
0.966034
0.965822
0.965775
0.96569
0.969719
0.969409
0.968975
0.968425
0.967837
0.96714
0.966556
0.965994
0.965649
0.965562
0.965505
0.965438
0.965429
0.965614
0.965732
0.965726
0.969229
0.968912
0.968562
0.968063
0.967499
0.966783
0.966247
0.965733
0.965377
0.965247
0.965153
0.965033
0.964979
0.965075
0.965409
0.965537
0.96878
0.968449
0.968338
0.967889
0.967474
0.966775
0.966156
0.96581
0.965741
0.965637
0.965397
0.965105
0.964995
0.964727
0.964647
0.964674
0.969193
0.968878
0.968824
0.968248
0.967441
0.9665
0.965882
0.96575
0.96583
0.965744
0.965422
0.965015
0.964657
0.964136
0.96387
0.963718
0.970921
0.970451
0.970134
0.969128
0.967687
0.966381
0.965453
0.965007
0.964802
0.964584
0.964348
0.964147
0.964012
0.963951
0.963657
0.96351
0.971739
0.971145
0.970662
0.969394
0.967609
0.966009
0.964819
0.964063
0.963771
0.963431
0.963192
0.963111
0.963234
0.963327
0.963446
0.963364
0.970462
0.969845
0.969465
0.968572
0.967406
0.965898
0.964714
0.963933
0.963674
0.963274
0.963016
0.962858
0.962909
0.963039
0.963443
0.963549
0.970036
0.969459
0.969194
0.96841
0.967299
0.965991
0.964795
0.963967
0.963677
0.963211
0.962966
0.962818
0.962761
0.962668
0.963159
0.963393
0.970479
0.969984
0.970102
0.969371
0.967813
0.966267
0.96506
0.964205
0.96393
0.963504
0.963204
0.962854
0.962524
0.962246
0.96204
0.961981
0.971179
0.9707
0.970706
0.969527
0.967919
0.966061
0.964905
0.964044
0.963754
0.963407
0.962989
0.962457
0.961941
0.961358
0.96095
0.960814
0.972665
0.972028
0.971728
0.969946
0.967423
0.965028
0.963953
0.962773
0.961933
0.961668
0.961014
0.960519
0.960448
0.960468
0.96072
0.960831
0.974066
0.973361
0.972766
0.970477
0.967286
0.964702
0.963968
0.962451
0.961283
0.961012
0.960272
0.959812
0.959897
0.9602
0.96077
0.960953
0.975944
0.974408
0.973533
0.971553
0.968588
0.965983
0.965611
0.964014
0.962808
0.962724
0.962045
0.961554
0.961435
0.961317
0.961618
0.961771
0.977386
0.975927
0.975283
0.972555
0.969268
0.966446
0.966116
0.96441
0.963202
0.963266
0.962765
0.962409
0.962179
0.961889
0.962043
0.962194
0.98005
0.978621
0.978376
0.974342
0.96914
0.964536
0.963664
0.961527
0.960285
0.960092
0.959922
0.960069
0.960429
0.960862
0.961154
0.961263
0.981914
0.98012
0.979324
0.97666
0.969707
0.964185
0.962686
0.960075
0.958688
0.958461
0.958195
0.958263
0.958725
0.959297
0.959771
0.95989
0.990503
0.987699
0.985043
0.978779
0.970841
0.965765
0.963958
0.961295
0.959936
0.959604
0.959174
0.958672
0.958359
0.958327
0.958408
0.958527
1.0097
1.00456
0.993882
0.980781
0.972509
0.966824
0.964121
0.96112
0.959842
0.95893
0.958359
0.958026
0.957801
0.957716
0.957668
0.957799
1.0343
1.02648
1.00842
0.98868
0.979668
0.967917
0.960249
0.957113
0.956691
0.956289
0.956147
0.956544
0.957326
0.958246
0.958944
0.959259
1.05522
1.04652
1.0227
0.996997
0.98979
0.971038
0.958447
0.955072
0.954256
0.953991
0.954637
0.955716
0.957048
0.958675
0.960105
0.96091
1.13812
1.12588
1.08037
1.03035
0.993984
0.975369
0.961281
0.957233
0.953834
0.95249
0.952893
0.954235
0.955488
0.957701
0.960097
0.961373
1.28648
1.26725
1.18424
1.0879
1.01672
0.978725
0.961688
0.957764
0.952907
0.950593
0.951132
0.952878
0.9539
0.956936
0.960159
0.961926
1.41139
1.38445
1.26785
1.12242
1.04797
0.987922
0.963008
0.958324
0.952134
0.949624
0.95133
0.954023
0.95478
0.958578
0.961512
0.962874
1.71538
1.67994
1.51943
1.25307
1.05954
1.0023
0.967624
0.959732
0.951451
0.948207
0.950656
0.954343
0.955573
0.961295
0.966385
0.968965
1.9438
1.90881
1.74508
1.40443
1.11686
1.01504
0.968489
0.958554
0.948519
0.944592
0.947004
0.952675
0.955641
0.967767
0.980654
0.985152
2.01403
1.97687
1.81398
1.49716
1.1759
1.048
0.97323
0.95659
0.944934
0.942142
0.944916
0.952524
0.957595
0.972235
0.985986
0.990784
2.01618
1.98166
1.8238
1.52257
1.21923
1.09452
0.988055
0.958711
0.941795
0.941037
0.948871
0.960372
0.963718
0.985812
1.01581
1.02273
2.04269
2.00754
1.85106
1.53813
1.23846
1.13201
1.00284
0.964093
0.940007
0.939278
0.951324
0.972154
0.987129
1.02745
1.06926
1.07871
2.057
2.01528
1.84403
1.53843
1.24136
1.1403
1.00809
0.968095
0.938311
0.935897
0.950152
0.975724
1.01712
1.08325
1.10577
1.12638
2.04015
1.99356
1.81248
1.52028
1.23572
1.13947
1.00923
0.96898
0.935772
0.932536
0.955998
0.997419
1.02515
1.1178
1.23845
1.2912
2.01796
1.96653
1.775
1.49197
1.22188
1.13329
1.00509
0.967813
0.933114
0.930419
0.960848
1.00936
1.0781
1.24784
1.42352
1.49839
1.99679
1.94027
1.73615
1.45619
1.20097
1.12038
1.00291
0.968121
0.933146
0.929924
0.977239
1.05165
1.216
1.43563
1.60014
1.63094
1.97214
1.9132
1.70178
1.42077
1.18299
1.10785
1.00162
0.967016
0.931252
0.929132
0.992679
1.10714
1.34811
1.59948
1.79165
1.8383
1.96065
1.89295
1.67201
1.41273
1.18073
1.10786
0.997202
0.961301
0.926069
0.929835
1.00664
1.11234
1.36424
1.70022
1.87557
1.91458
1.94696
1.87311
1.64014
1.37855
1.16244
1.09914
0.991826
0.952143
0.919519
0.925213
1.00589
1.16325
1.45181
1.77795
1.90296
1.92509
1.9315
1.85421
1.60792
1.34086
1.14311
1.08614
0.991058
0.94454
0.91608
0.923893
1.02166
1.22754
1.52905
1.82586
1.93817
1.95694
1.91873
1.83841
1.58467
1.31447
1.1275
1.07532
0.992939
0.938939
0.914035
0.924639
1.04747
1.27682
1.57078
1.83199
1.94992
1.97249
1.91576
1.83139
1.58249
1.31203
1.12517
1.07271
0.988925
0.92991
0.908405
0.927571
1.06655
1.30152
1.57348
1.81257
1.94329
1.97233
1.91564
1.81997
1.55064
1.28761
1.11264
1.06568
0.980053
0.919613
0.899778
0.935898
1.07196
1.29963
1.55697
1.78033
1.9331
1.97174
1.91502
1.81295
1.52366
1.25863
1.09637
1.0547
0.974256
0.914887
0.899557
0.953216
1.06176
1.28032
1.52695
1.74931
1.92659
1.97368
1.91619
1.81066
1.5106
1.23526
1.07796
1.03788
0.968184
0.914275
0.908495
0.966953
1.04421
1.24991
1.48962
1.72158
1.91615
1.97173
1.92129
1.81138
1.50888
1.23232
1.0638
1.01847
0.9552
0.91339
0.916315
0.969238
1.02998
1.22154
1.45671
1.70245
1.9131
1.97415
1.93071
1.81185
1.49074
1.20647
1.04503
1.0009
0.942118
0.907574
0.917383
0.967705
1.02848
1.21903
1.45468
1.69822
1.90526
1.97373
1.94178
1.81557
1.47645
1.18151
1.03693
0.998898
0.937739
0.901361
0.915344
0.964405
1.01788
1.19345
1.41622
1.65944
1.89167
1.97263
1.95271
1.82217
1.47495
1.17906
1.02682
0.98688
0.931407
0.898536
0.912546
0.953592
0.998747
1.15428
1.36405
1.62278
1.88577
1.97817
1.96134
1.82565
1.46473
1.15614
1.01419
0.976067
0.924203
0.895429
0.907355
0.93748
0.977002
1.11541
1.32312
1.60115
1.8866
1.9844
1.97415
1.83628
1.4592
1.13714
1.00806
0.975182
0.920451
0.891264
0.902603
0.935596
0.973582
1.10891
1.31713
1.59898
1.88465
1.98414
1.98689
1.8495
1.4644
1.13071
0.996689
0.96141
0.910749
0.88496
0.895444
0.924256
0.957952
1.08124
1.28425
1.57735
1.88393
1.99143
1.99912
1.86343
1.4779
1.13707
0.986333
0.94309
0.899403
0.878243
0.887351
0.908578
0.939504
1.05237
1.25745
1.56762
1.89007
2.0028
2.01259
1.8785
1.49573
1.15049
0.976652
0.924682
0.888746
0.876842
0.884427
0.892811
0.926098
1.04876
1.25278
1.56654
1.8973
2.00995
2.0258
1.89355
1.51401
1.16273
0.97011
0.917488
0.881584
0.872014
0.878684
0.890129
0.920643
1.0254
1.23978
1.56527
1.90112
2.01246
2.03989
1.9135
1.52534
1.16785
0.967039
0.910754
0.87535
0.866728
0.871386
0.881966
0.923598
1.00244
1.23027
1.57182
1.90936
2.01554
2.04971
1.93868
1.56825
1.19827
0.973128
0.907706
0.870065
0.859979
0.862627
0.87519
0.92296
1.00092
1.23747
1.58674
1.91515
2.01437
2.05488
1.96165
1.63625
1.25905
0.995641
0.920208
0.871306
0.854719
0.861058
0.87345
0.923299
1.00747
1.25659
1.60462
1.91831
2.01275
2.05478
1.9744
1.69339
1.33552
1.06421
0.977736
0.898113
0.855635
0.856129
0.875572
0.922661
1.019
1.27914
1.6201
1.92106
2.01211
2.0572
1.97808
1.70604
1.40013
1.13847
1.05657
0.942906
0.864884
0.851571
0.87299
0.912003
1.0415
1.29556
1.62151
1.92172
2.01247
2.05833
2.00245
1.77709
1.42063
1.15153
1.06791
0.948314
0.865599
0.851133
0.866876
0.90821
1.05708
1.31192
1.63811
1.92878
2.01571
2.0561
2.02659
1.86152
1.51788
1.22954
1.13984
0.990395
0.874116
0.84488
0.860707
0.898197
1.05641
1.32095
1.66138
1.93898
2.01956
2.05736
2.04373
1.92498
1.63696
1.33786
1.21959
1.02371
0.887345
0.837746
0.858077
0.885037
1.04765
1.32289
1.68797
1.94921
2.02008
2.06032
2.04792
1.95436
1.73387
1.46272
1.22195
1.03066
0.899503
0.837692
0.855549
0.87889
1.03977
1.33779
1.71107
1.96077
2.02475
2.06167
2.05077
1.9553
1.73737
1.54412
1.26377
1.04128
0.900061
0.835314
0.855142
0.873631
1.05232
1.40225
1.79294
1.99058
2.02845
2.06508
2.05972
1.98413
1.78532
1.55305
1.32679
1.083
0.912286
0.834609
0.849784
0.88816
1.12395
1.50283
1.87852
2.02234
2.03253
2.06668
2.06656
2.01157
1.84328
1.61985
1.40061
1.13273
0.932456
0.833322
0.852347
0.936714
1.21923
1.59569
1.92344
2.03145
2.03559
2.06444
2.06578
2.02657
1.89834
1.69646
1.41863
1.14643
0.936014
0.822093
0.860777
0.973923
1.25959
1.61582
1.92519
2.03374
2.03662
2.06033
2.06279
2.02624
1.92975
1.76803
1.51079
1.22365
0.965569
0.799418
0.89738
1.11448
1.41945
1.72058
1.95678
2.0377
2.03823
2.05588
2.06135
2.02213
1.92905
1.79222
1.6461
1.38651
1.09399
0.83679
1.06741
1.3477
1.62978
1.83899
1.9907
2.03965
2.03918
2.05193
2.05509
2.02265
1.94238
1.84407
1.77613
1.59156
1.31769
1.06526
1.33275
1.61079
1.76289
1.91157
2.00652
2.04104
2.04019
2.04936
2.05119
2.02391
1.9627
1.89739
1.87461
1.75179
1.57618
1.42483
1.59827
1.78084
1.80676
1.916
2.00865
2.04019
2.03907
2.05099
2.05412
2.02918
1.98615
1.94341
1.93439
1.85974
1.78471
1.75637
1.79437
1.84388
1.88124
1.95041
2.01514
2.03988
2.03774
2.05412
2.05758
2.03826
2.00917
1.97991
1.95863
1.92911
1.90287
1.89217
1.90398
1.90786
1.93371
1.98293
2.02223
2.04225
2.03877
2.06384
2.06674
2.05166
2.02254
1.99
1.96405
1.93312
1.90685
1.89904
1.90937
1.92784
1.97359
2.01122
2.0357
2.05028
2.04756
2.0796
2.08224
2.06952
2.04891
2.02215
1.99687
1.97389
1.95564
1.94867
1.95428
1.97085
1.99227
2.02029
2.04716
2.06224
2.05971
2.10583
2.1082
2.09751
2.07853
2.05583
2.03891
2.02267
2.01036
2.00448
2.00665
2.0174
2.03262
2.05452
2.0746
2.08708
2.08497
2.13424
2.13613
2.12604
2.1102
2.09151
2.0719
2.0518
2.04252
2.03921
2.04316
2.05441
2.07159
2.08999
2.10539
2.11584
2.11415
2.15231
2.15385
2.146
2.13048
2.1152
2.09824
2.0813
2.07428
2.07223
2.07555
2.0839
2.0978
2.11293
2.12668
2.13301
2.13152
2.15549
2.15682
2.15062
2.14038
2.12577
2.11224
2.10005
2.09312
2.09096
2.09484
2.10396
2.11373
2.12498
2.13259
2.13616
2.13464
2.15868
2.15997
2.15308
2.14079
2.12595
2.11438
2.10402
2.09747
2.09537
2.09951
2.10847
2.11724
2.12763
2.13665
2.14193
2.14079
2.15648
2.15774
2.15124
2.13961
2.12632
2.11509
2.10517
2.1002
2.09955
2.10339
2.10968
2.11924
2.12945
2.13781
2.14236
2.14121
2.15107
2.15223
2.14773
2.13894
2.12795
2.11856
2.11242
2.1089
2.10918
2.11119
2.11613
2.12379
2.13185
2.13755
2.13978
2.13858
2.14822
2.14943
2.14596
2.13844
2.12769
2.11866
2.11248
2.10936
2.10938
2.1117
2.11718
2.12362
2.13102
2.13624
2.13749
2.13643
2.15059
2.1516
2.1489
2.14225
2.1339
2.12637
2.12105
2.11876
2.11723
2.11773
2.12076
2.12596
2.13226
2.13726
2.13911
2.13845
2.15674
2.15748
2.15565
2.15072
2.14425
2.13859
2.13389
2.1304
2.12901
2.12758
2.12763
2.13037
2.13523
2.13964
2.14143
2.14089
2.16756
2.16786
2.16581
2.16206
2.15705
2.15265
2.14898
2.14571
2.14274
2.14001
2.13866
2.1392
2.14203
2.14548
2.14755
2.14708
2.18019
2.18072
2.17804
2.17506
2.17145
2.16811
2.16551
2.16253
2.15916
2.15601
2.1537
2.15263
2.15305
2.15238
2.15282
2.15195
2.18727
2.18971
2.19002
2.18824
2.18638
2.18465
2.18338
2.18154
2.17802
2.1739
2.17003
2.16745
2.16739
2.16595
2.16494
2.16347
2.1933
2.1964
2.19882
2.19977
2.20042
2.19933
2.19756
2.19609
2.19307
2.18948
2.18605
2.18265
2.18085
2.1808
2.17877
2.17696
2.19965
2.20189
2.20619
2.20949
2.21006
2.20794
2.20569
2.205
2.20253
2.2003
2.19847
2.19727
2.19558
2.19497
2.19243
2.19052
2.21328
2.21326
2.21333
2.21532
2.21101
2.20724
2.20476
2.20409
2.20202
2.20137
2.20083
2.2027
2.20426
2.20459
2.20382
2.20315
2.23326
2.23025
2.22279
2.21799
2.2166
2.21103
2.20793
2.20752
2.20605
2.20599
2.20619
2.2049
2.20466
2.20673
2.20832
2.20962
2.24994
2.24818
2.24232
2.23304
2.22393
2.21756
2.2139
2.21291
2.21113
2.21096
2.21412
2.21855
2.22605
2.22925
2.23433
2.23724
2.27456
2.27388
2.26993
2.26207
2.25334
2.24597
2.24064
2.23687
2.23489
2.23546
2.24696
2.25388
2.26285
2.26959
2.27472
2.27778
2.28974
2.2898
2.28907
2.28324
2.26808
2.26377
2.25766
2.25286
2.25184
2.25414
2.25803
2.28509
2.29723
2.30423
2.30746
2.30844
2.29381
2.29367
2.29565
2.30939
2.3175
2.31906
2.31561
2.31009
2.31121
2.31443
2.31405
2.30357
2.30085
2.30746
2.31055
2.31077
2.33401
2.33548
2.33832
2.36428
2.37941
2.38904
2.39091
2.38856
2.38692
2.38586
2.37413
2.34602
2.32873
2.33367
2.33461
2.3329
2.41602
2.42254
2.42228
2.41369
2.42915
2.43728
2.43635
2.43205
2.42995
2.42944
2.41875
2.3898
2.36666
2.35654
2.35509
2.35408
2.48851
2.49884
2.53135
2.56457
2.60472
2.61153
2.60659
2.59804
2.59452
2.59493
2.58524
2.54246
2.49253
2.44594
2.43697
2.43923
2.51621
2.52639
2.62263
2.75805
2.82658
2.83351
2.82455
2.81408
2.81355
2.81791
2.8097
2.75441
2.67091
2.57039
2.55156
2.55004
2.71482
2.71857
2.78984
2.88354
2.9364
2.95184
2.94176
2.92473
2.92094
2.92175
2.91699
2.87589
2.74157
2.66852
2.65581
2.65787
3.10478
3.08241
3.01837
2.96179
2.91205
2.8857
2.87074
2.85756
2.85723
2.86569
2.91341
2.96982
2.99058
3.05156
3.07146
3.07214
2.77215
2.76502
2.64371
2.48577
2.35254
2.28706
2.27428
2.27827
2.2893
2.30936
2.39176
2.51578
2.63943
2.71083
2.7248
2.73496
SCALARS u double
LOOKUP_TABLE default
1.42479e-05
6.28967e-05
8.19505e-05
8.64923e-05
9.67277e-05
0.000122429
0.000116444
0.000140977
0.000146734
0.000136977
0.000133236
0.000128551
0.000110675
8.2041e-05
5.38472e-05
1.50319e-05
1.6078e-05
7.36219e-05
8.67703e-05
9.26365e-05
0.000107921
0.000141155
0.000244498
0.000366599
0.000462876
0.000478979
0.000461437
0.000418064
0.000356659
0.000266925
0.000167149
3.05248e-05
1.77147e-05
7.86766e-05
0.000109369
0.000165692
0.000206531
0.000278062
0.000421322
0.000557915
0.000685832
0.000760675
0.00073705
0.000634522
0.000508192
0.000362922
0.000218933
4.33675e-05
2.10114e-05
7.68145e-05
9.18062e-05
0.000153836
0.000190986
0.000282027
0.000425918
0.000563315
0.000702016
0.000761356
0.000738045
0.0006473
0.000532464
0.000390857
0.000236894
4.8731e-05
3.04895e-05
0.000148393
0.000214579
0.000334059
0.000416746
0.000533609
0.000572304
0.00063128
0.000689799
0.00070178
0.000669051
0.000584682
0.000471385
0.000327455
0.000196245
4.43953e-05
3.7138e-05
0.000159539
0.000221548
0.000352168
0.000442819
0.000552777
0.00058819
0.000636598
0.000636853
0.000609993
0.000565938
0.000492518
0.000395045
0.000261329
0.000158457
3.92633e-05
4.66799e-05
0.000245124
0.000367194
0.000591079
0.000751851
0.000834526
0.000766085
0.000694347
0.000621744
0.000563505
0.000488415
0.000379475
0.000258387
0.000122825
6.91877e-05
2.78893e-05
5.12328e-05
0.000261197
0.000481672
0.000649435
0.000798222
0.000872253
0.000898062
0.000788656
0.00066118
0.000526633
0.00039907
0.000262239
0.000139903
4.35831e-05
2.13529e-05
1.7473e-05
6.14404e-05
0.000351293
0.000646401
0.000852288
0.000998367
0.00109859
0.00106475
0.000905079
0.000702457
0.000514018
0.00035178
0.000190464
6.18193e-05
-4.75715e-05
-6.42348e-05
-1.07301e-06
7.3849e-05
0.000390834
0.000660906
0.000890842
0.0011013
0.00125935
0.00124626
0.00105566
0.000783086
0.000519923
0.000364148
0.000151531
-4.4206e-06
-8.85564e-05
-7.64577e-05
-1.10489e-05
9.04872e-05
0.000484021
0.000818182
0.00110467
0.00134753
0.00148903
0.00140241
0.00120536
0.000893617
0.000586842
0.000410006
0.000148654
-5.46385e-05
-0.00016116
-0.000145781
-2.82026e-05
0.000115899
0.000606446
0.000992727
0.00129687
0.00152826
0.00164212
0.00156067
0.00136487
0.00101257
0.000662969
0.000466116
0.000179597
-4.66526e-05
-0.000176947
-0.000167682
-3.50603e-05
0.000142307
0.000713855
0.00113457
0.00139512
0.00154003
0.0016532
0.00167242
0.00148734
0.00113012
0.000739718
0.000547983
0.00023209
5.91131e-06
-0.000140687
-0.000140603
-3.1178e-05
0.00015496
0.000770308
0.00122706
0.00152338
0.0016764
0.00174598
0.00168044
0.00149261
0.00119281
0.00087306
0.000591114
0.000310315
8.94772e-05
-2.92939e-05
-8.76835e-05
-2.86405e-05
0.000164757
0.000784723
0.00124381
0.00164244
0.00186454
0.00189185
0.00175242
0.00156245
0.00135592
0.00105558
0.000702905
0.000426621
0.000268324
0.00013054
1.63104e-05
-1.7475e-05
0.00017206
0.000837621
0.00134603
0.00178004
0.00203586
0.0020454
0.00188726
0.00167188
0.00147479
0.00117253
0.000835579
0.000590676
0.000441917
0.000285057
0.000128796
3.69285e-06
0.000185683
0.000915855
0.00149481
0.00197219
0.00209769
0.00215938
0.0020388
0.00178112
0.00149387
0.00117567
0.000981376
0.000759374
0.000559525
0.000391083
0.000221774
2.44199e-05
0.000203802
0.00100299
0.00163443
0.00216355
0.00233231
0.00242057
0.00232092
0.00203811
0.00169074
0.00134665
0.00115575
0.000903819
0.000645584
0.000428289
0.000247597
3.95224e-05
0.000223574
0.00106427
0.00165078
0.00222329
0.00260059
0.0027707
0.00269019
0.0024085
0.00199246
0.00161605
0.00136049
0.001046
0.000741181
0.000443011
0.000256535
4.60223e-05
0.000233425
0.00111011
0.00173095
0.00238768
0.00286117
0.0030782
0.00301214
0.00273999
0.00227507
0.0018508
0.00154124
0.00117173
0.000847439
0.000526162
0.000296406
5.31877e-05
0.000232715
0.00112161
0.00187408
0.00260413
0.00307054
0.00311619
0.00303715
0.00277262
0.00230313
0.00188295
0.00157941
0.0012558
0.00101505
0.000684892
0.000364026
6.32059e-05
0.000245609
0.00120776
0.00205513
0.00280082
0.00313282
0.00340222
0.00336813
0.00311838
0.00264912
0.00219557
0.00185876
0.00146368
0.0012014
0.000828819
0.000458531
8.26666e-05
0.000268958
0.00134845
0.00228333
0.00308928
0.00351095
0.00385787
0.00385938
0.00361293
0.0031396
0.00263389
0.0022435
0.00175987
0.001302
0.00085006
0.000525679
0.000101129
0.000292928
0.0014682
0.0024738
0.00339698
0.00400152
0.00439896
0.00440791
0.0041971
0.00368337
0.00309175
0.0026323
0.00201338
0.0013795
0.000799927
0.000504021
0.000106006
0.000328791
0.00162982
0.00273332
0.0037257
0.00444881
0.00491185
0.004894
0.00464279
0.00408557
0.00342998
0.00289967
0.00218357
0.00146796
0.000818956
0.000461011
9.93163e-05
0.000369511
0.00178486
0.00294654
0.00398441
0.00475699
0.00522291
0.00519964
0.00466693
0.00410723
0.00345671
0.00291984
0.00222763
0.00168089
0.00104603
0.000529773
9.6501e-05
0.000411911
0.00196525
0.00300807
0.0040764
0.00482959
0.00530025
0.00532462
0.00504046
0.00453424
0.0038905
0.00326229
0.00253198
0.0020261
0.00137108
0.000724985
0.000113665
0.000423816
0.00209767
0.0034786
0.00470907
0.00552163
0.00602918
0.00605261
0.00574882
0.00519254
0.00447796
0.00377177
0.00297316
0.00224431
0.00155582
0.000914992
0.000155913
0.000498992
0.00252121
0.00427531
0.00570775
0.00655853
0.0071844
0.00708154
0.00659695
0.00587583
0.00504345
0.00424657
0.00334508
0.00233586
0.00145944
0.000953564
0.000188714
0.000599215
0.00301344
0.00502919
0.00670809
0.00752452
0.00812938
0.00792899
0.00733278
0.00642245
0.00541983
0.0044754
0.00350092
0.00246958
0.00145872
0.00092195
0.000197683
0.000681586
0.00331567
0.00552092
0.00730858
0.00816539
0.00817017
0.00797675
0.00739965
0.00648704
0.00547931
0.0044957
0.0035349
0.00281881
0.00174198
0.000891263
0.000177073
0.000688432
0.0033409
0.00551602
0.00736759
0.00842548
0.00912504
0.00898646
0.00840696
0.00732709
0.00613553
0.00497751
0.00384843
0.00297406
0.00202704
0.00107872
0.00019834
0.000798871
0.00387676
0.00642157
0.00862128
0.0099764
0.0108272
0.0104974
0.00964635
0.00845092
0.00717113
0.0059231
0.00464092
0.00343981
0.0023766
0.00138201
0.000248297
0.000961608
0.00473411
0.00785597
0.0105773
0.0122193
0.0129525
0.0124662
0.0113485
0.00984655
0.00826444
0.00668324
0.00506801
0.00365151
0.00252827
0.00159789
0.000313236
0.00115018
0.00567131
0.00931851
0.0124128
0.0141579
0.0148085
0.0141945
0.0128154
0.010976
0.00905272
0.00716286
0.00524335
0.00360345
0.00228329
0.00140428
0.000291893
0.00118265
0.00578851
0.00942009
0.0124985
0.0142383
0.0149083
0.0143782
0.0129638
0.01107
0.00911515
0.00718366
0.00521816
0.00350376
0.00209229
0.00136224
0.000293872
0.00143969
0.00686462
0.0110628
0.0144425
0.0160767
0.0164921
0.0156831
0.0141605
0.0119913
0.00971861
0.00763097
0.0056731
0.00404596
0.00245345
0.00136094
0.000264395
0.0016407
0.00777267
0.0127555
0.0165962
0.0180305
0.0185177
0.0173907
0.0155112
0.0129214
0.0103406
0.00780279
0.00580938
0.0041078
0.00258665
0.00147251
0.000270193
0.00166144
0.00800416
0.0131974
0.0173799
0.0191364
0.0190583
0.0176459
0.0156789
0.0131436
0.0105895
0.00835807
0.00616677
0.00435247
0.00259192
0.00136831
0.000252483
0.00197884
0.00970908
0.0162495
0.0213709
0.0226331
0.0222124
0.0199325
0.0173963
0.0148896
0.0119377
0.00905399
0.00616279
0.00396165
0.00221897
0.00127822
0.00024935
0.00245483
0.0120156
0.0198365
0.0261918
0.0272032
0.0257834
0.0224418
0.0192642
0.0174547
0.0136896
0.00978042
0.00614422
0.00365395
0.00173036
0.000915429
0.00018984
0.00258581
0.0123297
0.0202382
0.0264749
0.0310502
0.0290908
0.0248124
0.0209826
0.0194894
0.0147699
0.00997075
0.00566074
0.00268877
0.000935377
0.000373335
0.000124189
0.00331003
0.0156101
0.0251228
0.0312863
0.032837
0.0302298
0.0256201
0.0215529
0.0196494
0.0148142
0.00974279
0.00539744
0.00246463
0.000815686
0.000218911
8.68471e-05
0.00411035
0.0195526
0.031383
0.0379033
0.0397645
0.0365798
0.030586
0.0251257
0.0204351
0.014676
0.00910983
0.00439095
0.00094796
-0.000351493
-0.000634453
-0.000105023
0.00426143
0.0205255
0.0334772
0.0462065
0.0483746
0.0443824
0.0369976
0.0295309
0.0219428
0.0147255
0.00838291
0.00329592
0.000211672
-0.0016649
-0.00152514
-0.00033047
0.00553761
0.027295
0.0431842
0.0536967
0.0549963
0.0503927
0.0421807
0.0329806
0.0233938
0.0147811
0.00736086
0.00185338
-0.00162242
-0.0032354
-0.00248368
-0.000530625
0.00691411
0.0332319
0.0518272
0.0557485
0.0564817
0.0510899
0.042619
0.0331649
0.0233234
0.0142547
0.0067357
0.00119761
-0.00196809
-0.00308438
-0.00240119
-0.000548379
0.00701158
0.0339
0.0543529
0.0691489
0.0684193
0.0604108
0.0483054
0.0357494
0.0236122
0.0131246
0.00382939
-0.00282737
-0.00667608
-0.00697687
-0.0047518
-0.00100602
0.00849497
0.0408251
0.0672403
0.0866401
0.08562
0.0725479
0.0558133
0.0390751
0.0237165
0.00997657
-0.00219918
-0.0105683
-0.0143168
-0.013256
-0.0087886
-0.00172736
0.00939164
0.0454714
0.0753845
0.0955329
0.0920327
0.0784257
0.0604703
0.0410158
0.0233889
0.00667745
-0.00772461
-0.0172314
-0.0210173
-0.0186662
-0.0120778
-0.0024045
0.00893584
0.0431939
0.072535
0.0934821
0.090776
0.0780899
0.0603491
0.041139
0.0231786
0.00627812
-0.00838865
-0.0177926
-0.0213642
-0.0188604
-0.0122401
-0.00254066
0.00903219
0.0444129
0.0746535
0.0934181
0.0913311
0.0769511
0.0624493
0.0410038
0.0220032
0.00347608
-0.0123356
-0.0224474
-0.0257903
-0.0225785
-0.0146041
-0.0031254
0.00893863
0.0439374
0.0733543
0.0878724
0.0862448
0.0751289
0.0651183
0.0410631
0.0201353
0.0014999
-0.0148774
-0.0257069
-0.0291178
-0.0248886
-0.0159233
-0.00327724
0.00889564
0.0437395
0.0719024
0.079086
0.0753501
0.0716288
0.0651601
0.0411932
0.0185628
-0.0034174
-0.0223168
-0.0354774
-0.0394365
-0.03337
-0.0213401
-0.00451276
0.0087725
0.0431178
0.0685363
0.0729607
0.0647044
0.0623892
0.0611863
0.0407829
0.0150485