# vtk DataFile Version 3.0
Grid data
ASCII
DATASET STRUCTURED_POINTS
DIMENSIONS 16 128 1
ORIGIN 0 0 0
SPACING 0.015625 0.0078125 1
POINT_DATA 2048
SCALARS rho double
LOOKUP_TABLE default
0.98532
0.985432
0.985689
0.986262
0.98654
0.986839
0.987128
0.987302
0.987251
0.987143
0.987199
0.987474
0.987507
0.987577
0.987712
0.98788
0.980519
0.980787
0.981258
0.981546
0.981633
0.981892
0.981971
0.982061
0.982162
0.982157
0.982069
0.982311
0.982169
0.981909
0.981841
0.981918
0.974836
0.975195
0.976095
0.977195
0.977861
0.978662
0.979073
0.9792
0.979282
0.979086
0.97852
0.977992
0.976959
0.976005
0.975482
0.975225
0.970989
0.971498
0.972691
0.974435
0.977375
0.978254
0.978694
0.97882
0.978895
0.978674
0.978068
0.975566
0.973739
0.972587
0.971669
0.971238
0.971101
0.971544
0.972664
0.97425
0.975693
0.976683
0.977007
0.977163
0.977344
0.97738
0.976742
0.975485
0.973777
0.972359
0.971423
0.971157
0.969588
0.970129
0.971217
0.972435
0.973395
0.974168
0.974351
0.974617
0.974884
0.975098
0.974688
0.973896
0.972464
0.971024
0.969963
0.969585
0.967976
0.968489
0.969426
0.970581
0.971508
0.972206
0.972671
0.973152
0.973283
0.973243
0.97287
0.972017
0.970753
0.969523
0.968509
0.968017
0.967708
0.968152
0.9688
0.969756
0.970835
0.971433
0.972227
0.972774
0.972838
0.972492
0.972199
0.971241
0.970024
0.968838
0.967884
0.967295
0.968804
0.969123
0.969387
0.969832
0.970444
0.97112
0.971875
0.972401
0.972465
0.972246
0.971938
0.971249
0.970414
0.969422
0.968565
0.96804
0.970461
0.970728
0.970853
0.971037
0.97135
0.971438
0.972041
0.972507
0.972598
0.972649
0.97244
0.971989
0.971424
0.970699
0.970054
0.969613
0.971853
0.971923
0.971779
0.971998
0.972228
0.972135
0.972675
0.97307
0.973218
0.973246
0.972746
0.972358
0.971863
0.971438
0.971383
0.971144
0.971913
0.971962
0.971784
0.971978
0.972317
0.973202
0.973849
0.974189
0.974264
0.973672
0.972721
0.972342
0.97178
0.971418
0.971426
0.971203
0.973375
0.973181
0.972604
0.972589
0.973117
0.973885
0.974399
0.974702
0.974653
0.974328
0.973174
0.972813
0.9725
0.972377
0.972591
0.972457
0.974492
0.974458
0.97425
0.97398
0.973628
0.973875
0.974384
0.974719
0.974698
0.974477
0.974561
0.974415
0.974224
0.974123
0.973888
0.973632
0.976813
0.976704
0.97619
0.975477
0.974763
0.974756
0.975035
0.975278
0.975299
0.975319
0.975693
0.975829
0.975981
0.9762
0.976182
0.97601
0.977788
0.977502
0.976839
0.976434
0.976273
0.976395
0.976489
0.976624
0.976605
0.976302
0.976062
0.976106
0.976273
0.976569
0.977338
0.97758
0.980484
0.980204
0.979454
0.978794
0.978424
0.978344
0.978257
0.978231
0.978204
0.978041
0.977824
0.977968
0.978416
0.9791
0.979944
0.980179
0.980766
0.980526
0.980054
0.979642
0.978965
0.978554
0.978446
0.978439
0.97841
0.97832
0.978379
0.978573
0.97907
0.979613
0.980268
0.980502
0.98291
0.982681
0.982209
0.981767
0.980998
0.9804
0.979975
0.979829
0.979757
0.979767
0.980016
0.980428
0.981057
0.981638
0.982184
0.982336
0.983888
0.983603
0.983015
0.982422
0.981729
0.981097
0.980471
0.980092
0.979996
0.980164
0.980535
0.981065
0.981754
0.98241
0.983203
0.983553
0.985091
0.984879
0.984417
0.98383
0.983035
0.982217
0.981448
0.980968
0.980825
0.981024
0.981521
0.982202
0.983006
0.98372
0.98442
0.984723
0.985525
0.985357
0.984976
0.984415
0.983563
0.982682
0.98185
0.981292
0.981117
0.981343
0.981917
0.982664
0.983511
0.984244
0.984913
0.985216
0.986044
0.985911
0.985604
0.985073
0.984228
0.983268
0.982355
0.98173
0.981502
0.981722
0.982349
0.983197
0.98413
0.984886
0.985504
0.985793
0.986202
0.986086
0.985819
0.985306
0.984477
0.983485
0.982539
0.981889
0.981624
0.981842
0.982497
0.98338
0.98435
0.985116
0.985708
0.985991
0.986432
0.986329
0.986098
0.985588
0.984768
0.98376
0.982758
0.982014
0.981728
0.981973
0.98268
0.983636
0.984633
0.985397
0.985947
0.986211
0.98659
0.986487
0.986269
0.985736
0.984898
0.983865
0.982816
0.98204
0.981729
0.981987
0.982734
0.983731
0.984757
0.985535
0.986059
0.986312
0.986743
0.986638
0.986406
0.985846
0.984988
0.983926
0.98286
0.982073
0.981767
0.982038
0.982821
0.983845
0.98487
0.985637
0.986128
0.986365
0.986851
0.986738
0.986474
0.985879
0.984996
0.983927
0.98287
0.982097
0.981802
0.982094
0.982888
0.983913
0.984917
0.985667
0.986125
0.986357
0.986891
0.986768
0.986476
0.985861
0.984979
0.983926
0.982894
0.982145
0.981881
0.982189
0.98297
0.983961
0.984921
0.985641
0.986062
0.986295
0.986884
0.986735
0.986427
0.985813
0.984953
0.983943
0.982962
0.982254
0.982008
0.982307
0.983044
0.98398
0.984884
0.98557
0.985964
0.986189
0.986824
0.986657
0.986346
0.985752
0.984933
0.983983
0.983054
0.982373
0.982134
0.982411
0.983093
0.983965
0.984811
0.985466
0.985843
0.986059
0.986721
0.986548
0.98625
0.985686
0.98492
0.984002
0.983118
0.982461
0.982223
0.982463
0.9831
0.983911
0.984704
0.985337
0.985708
0.985923
0.986596
0.986422
0.986148
0.985602
0.984864
0.98399
0.983139
0.982498
0.982258
0.982472
0.983047
0.983805
0.984562
0.985185
0.985555
0.985771
0.986472
0.986297
0.986035
0.985488
0.984777
0.983945
0.983139
0.982532
0.982289
0.982463
0.982963
0.983662
0.984385
0.985006
0.985386
0.985607
0.986363
0.986184
0.985918
0.985362
0.984668
0.983866
0.983108
0.982537
0.982295
0.982447
0.982932
0.983535
0.984212
0.984815
0.98518
0.985397
0.986272
0.986087
0.985796
0.985214
0.984518
0.983735
0.983014
0.982469
0.982229
0.982376
0.982838
0.983514
0.984192
0.984732
0.985004
0.985212
0.986187
0.985987
0.985664
0.985057
0.984357
0.983585
0.982875
0.98236
0.982132
0.982267
0.982716
0.983369
0.98401
0.984512
0.984734
0.984935
0.986077
0.985856
0.985493
0.984883
0.984202
0.983462
0.982811
0.982326
0.982121
0.98224
0.982644
0.983219
0.983793
0.984258
0.984451
0.984642
0.985937
0.985692
0.985297
0.984698
0.984054
0.98338
0.982823
0.982414
0.982241
0.982345
0.982669
0.983102
0.98356
0.983977
0.984178
0.984359
0.985765
0.985501
0.985093
0.984514
0.983918
0.983313
0.982836
0.982499
0.98235
0.982425
0.982653
0.982961
0.983314
0.983678
0.983934
0.984112
0.9856
0.985321
0.984907
0.98434
0.983799
0.983276
0.982847
0.982537
0.982382
0.982413
0.982577
0.982812
0.983115
0.983439
0.983712
0.983898
0.985478
0.985186
0.984756
0.984182
0.98369
0.983217
0.982836
0.98252
0.982336
0.982341
0.982487
0.98277
0.983102
0.983425
0.983576
0.983748
0.985391
0.985088
0.984648
0.984163
0.983666
0.98317
0.982759
0.982422
0.982224
0.982193
0.982318
0.982565
0.982876
0.983195
0.983345
0.983538
0.985324
0.984999
0.984544
0.983991
0.983486
0.983017
0.982603
0.982285
0.982099
0.982108
0.982179
0.982332
0.982583
0.982898
0.983084
0.983294
0.985291
0.984937
0.984428
0.983813
0.983262
0.982792
0.982416
0.982131
0.981955
0.981938
0.981982
0.982111
0.982321
0.982615
0.982829
0.983048
0.985221
0.984839
0.984321
0.983659
0.983079
0.982616
0.982271
0.982001
0.981829
0.981771
0.981788
0.98192
0.98211
0.98238
0.982584
0.982803
0.985136
0.984736
0.984232
0.983663
0.983071
0.982508
0.982187
0.981967
0.981796
0.981682
0.981675
0.981787
0.981954
0.982194
0.982322
0.982542
0.985059
0.98465
0.984196
0.983544
0.982969
0.982476
0.982197
0.981972
0.981807
0.981709
0.98169
0.981677
0.981792
0.98202
0.982252
0.982472
0.985045
0.984627
0.984207
0.983567
0.982966
0.982402
0.98202
0.981819
0.98168
0.981632
0.98159
0.98161
0.981668
0.981869
0.982064
0.982261
0.985236
0.984782
0.98423
0.983499
0.982823
0.982161
0.981664
0.981514
0.981409
0.981362
0.981327
0.981415
0.981568
0.981797
0.982012
0.982207
0.985515
0.98503
0.984346
0.983442
0.982533
0.981732
0.98126
0.981098
0.981014
0.980967
0.981019
0.981152
0.981397
0.981746
0.982069
0.982309
0.985998
0.985402
0.984492
0.983369
0.982222
0.981377
0.981249
0.981019
0.98078
0.980643
0.980578
0.980723
0.981065
0.981572
0.982051
0.98236
0.986422
0.985721
0.984647
0.983352
0.982248
0.98135
0.980794
0.980552
0.980273
0.98012
0.980061
0.980276
0.980675
0.981286
0.981896
0.982307
0.987231
0.98634
0.984972
0.983401
0.982046
0.98104
0.980323
0.979968
0.979686
0.97959
0.97963
0.979952
0.980408
0.981184
0.981726
0.982141
0.987571
0.986634
0.985179
0.983448
0.982101
0.981029
0.979854
0.979471
0.97919
0.979081
0.979322
0.97995
0.980337
0.98112
0.981624
0.982152
0.989563
0.988225
0.986147
0.983813
0.98201
0.980627
0.979804
0.979432
0.979162
0.979001
0.979171
0.979734
0.980187
0.98122
0.981882
0.982332
0.992499
0.990791
0.987997
0.985152
0.98258
0.980081
0.979198
0.979026
0.978657
0.978278
0.978513
0.979394
0.980031
0.981437
0.982436
0.982968
0.993775
0.991892
0.988636
0.987103
0.983096
0.979877
0.978542
0.978292
0.977946
0.978061
0.978259
0.978934
0.980008
0.981679
0.983213
0.983951
0.999852
0.997456
0.992464
0.987799
0.98477
0.980156
0.978105
0.978148
0.977474
0.977061
0.977439
0.978563
0.980106
0.982205
0.984139
0.985361
1.02316
1.01904
1.00719
0.992434
0.986618
0.980579
0.97769
0.977017
0.976352
0.976096
0.97681
0.978168
0.980092
0.983092
0.984717
0.986127
1.0519
1.04476
1.02613
1.01023
0.993596
0.982087
0.978036
0.975331
0.974499
0.974973
0.976477
0.978398
0.97993
0.983687
0.9881
0.990475
1.06741
1.06
1.03806
1.03522
1.00388
0.98366
0.977823
0.973749
0.972874
0.974466
0.976406
0.979493
0.980459
0.986805
0.995989
0.999915
1.13666
1.129
1.09529
1.04695
1.0045
0.988826
0.976664
0.973653
0.972739
0.973773
0.976973
0.981653
0.983699
0.993325
0.999888
1.00468
1.32848
1.30347
1.21275
1.1026
1.01672
0.99225
0.975625
0.972123
0.970984
0.973189
0.979087
0.986993
0.994568
1.00074
1.01976
1.02848
1.56808
1.51386
1.3481
1.17526
1.03367
0.988471
0.975229
0.971907
0.970207
0.973799
0.982496
0.991365
1.00005
1.02516
1.06289
1.07691
1.78547
1.70141
1.4599
1.18882
1.03492
0.986094
0.97286
0.969672
0.968688
0.975486
0.984299
1.0063
1.02753
1.10957
1.20167
1.22988
1.90007
1.82119
1.55575
1.25145
1.0542
0.988678
0.971059
0.967235
0.968607
0.979476
0.991325
1.03553
1.08052
1.23237
1.38283
1.42915
1.92252
1.85073
1.60236
1.30448
1.07873
0.99741
0.973081
0.966063
0.966993
0.982863
1.00108
1.06974
1.1389
1.35301
1.55449
1.61898
1.92793
1.85306
1.61441
1.32889
1.09464
1.00885
0.974549
0.965559
0.964708
0.983967
1.00798
1.09556
1.18001
1.43347
1.67636
1.75807
1.95748
1.88006
1.62649
1.32893
1.09551
1.01354
0.974873
0.965914
0.962379
0.983057
1.00905
1.10119
1.18372
1.43634
1.7343
1.83111
1.98116
1.91254
1.67554
1.36594
1.10749
1.01155
0.975188
0.966411
0.961066
0.979156
1.0044
1.0955
1.20228
1.47866
1.74681
1.83777
1.9825
1.94452
1.76685
1.44011
1.14941
1.00851
0.972866
0.964146
0.960027
0.977818
0.999278
1.08064
1.26555
1.55855
1.81982
1.89964
1.99906
1.98234
1.8584
1.53505
1.21152
1.01077
0.96903
0.959367
0.955249
0.970744
0.998799
1.09976
1.34307
1.65984
1.89076
1.95226
2.01773
2.00799
1.90978
1.63863
1.30391
1.04784
0.969735
0.955319
0.948313
0.96212
0.994808
1.15466
1.43343
1.76249
1.92434
1.95681
2.02379
2.00927
1.91626
1.72594
1.4287
1.1342
0.977525
0.952555
0.941309
0.958286
0.999026
1.18678
1.52224
1.82835
1.96003
1.98093
2.03689
2.02406
1.93757
1.73517
1.5534
1.26655
1.03565
0.962819
0.936198
0.963774
1.05764
1.31233
1.61112
1.83524
1.97492
2.00527
2.03896
2.03533
1.9767
1.80109
1.5887
1.46359
1.2152
1.02442
0.938774
1.04614
1.25487
1.52491
1.63627
1.86214
1.99667
2.02274
2.05134
2.05015
2.01394
1.88824
1.73644
1.6947
1.46382
1.20041
0.984521
1.24024
1.49503
1.70481
1.7514
1.92271
2.01107
2.02368
2.05852
2.05991
2.03121
1.95819
1.86772
1.84925
1.67044
1.41817
1.15708
1.47577
1.68599
1.72279
1.85935
1.98828
2.03479
2.03832
2.06061
2.06343
2.04288
1.96215
1.87489
1.85935
1.69943
1.53116
1.4249
1.53456
1.70738
1.8162
1.93661
2.01869
2.05167
2.05196
2.06286
2.06572
2.04736
1.99806
1.93716
1.9296
1.81797
1.72703
1.71364
1.72124
1.80914
1.91005
1.99297
2.04245
2.05934
2.05777
2.06384
2.06576
2.05712
2.03257
1.99976
1.99366
1.92829
1.87077
1.86127
1.86817
1.9152
1.97919
2.03011
2.05223
2.06084
2.059
2.06357
2.06597
2.06137
2.04438
2.02348
2.01793
1.97466
1.92896
1.90926
1.92965
1.9811
2.02171
2.04613
2.05399
2.06186
2.0603
2.06329
2.06582
2.06243
2.0547
2.04244
2.04002
2.01719
1.9939
1.98365
1.99466
2.02065
2.04213
2.04846
2.0572
2.06247
2.06075
2.0631
2.06578
2.06388
2.05845
2.04873
2.04306
2.03373
2.0323
2.02805
2.03274
2.03432
2.04474
2.05446
2.05861
2.06208
2.05998
2.06268
2.06548
2.0651
2.06317
2.05773
2.05355
2.04995
2.04363
2.04053
2.04414
2.05073
2.05437
2.05957
2.06077
2.06164
2.05906
2.06216
2.0648
2.06507
2.06539
2.06236
2.06096
2.05889
2.05552
2.05396
2.05554
2.05909
2.06083
2.06263
2.06255
2.06138
2.0586
2.06169
2.06443
2.0655
2.06602
2.06537
2.06315
2.06124
2.05955
2.05853
2.05936
2.06149
2.063
2.06363
2.06332
2.06135
2.05871
2.06192
2.06452
2.06638
2.06742
2.06654
2.0663
2.06535
2.06476
2.06417
2.0641
2.06469
2.06523
2.0652
2.06388
2.06154
2.05935
2.06274
2.0651
2.06747
2.06909
2.06914
2.06939
2.06836
2.0676
2.06699
2.06698
2.06735
2.06705
2.06603
2.06457
2.06257
2.06094
2.06412
2.06608
2.06814
2.07051
2.07124
2.07185
2.07144
2.07087
2.07014
2.0695
2.06888
2.06807
2.06692
2.06557
2.06426
2.06329
2.06596
2.06746
2.06904
2.07091
2.07219
2.07319
2.07281
2.07233
2.07164
2.07082
2.06992
2.06864
2.06754
2.06691
2.06652
2.0663
2.06816
2.06921
2.07033
2.07181
2.0728
2.07387
2.07373
2.07322
2.07236
2.07127
2.0702
2.06911
2.06866
2.0689
2.06942
2.06985
2.07082
2.07139
2.07199
2.07238
2.07313
2.074
2.07379
2.07312
2.07203
2.07083
2.06992
2.06929
2.07
2.07145
2.07307
2.07406
2.07419
2.07406
2.07384
2.07341
2.07317
2.07358
2.07322
2.07235
2.07106
2.06984
2.06929
2.06968
2.07168
2.07438
2.07724
2.0787
2.07829
2.0773
2.07568
2.07398
2.0729
2.07269
2.07199
2.07098
2.06971
2.06876
2.06882
2.07036
2.07367
2.07757
2.08143
2.08331
2.08287
2.08112
2.07808
2.0752
2.07269
2.07149
2.07025
2.06917
2.06823
2.0679
2.06889
2.0715
2.07597
2.08088
2.08544
2.08751
2.08764
2.08535
2.08111
2.07692
2.07302
2.0704
2.06845
2.06729
2.0669
2.06747
2.06956
2.07318
2.07855
2.08425
2.08933
2.09134
2.0924
2.08978
2.08459
2.07917
2.07391
2.06992
2.06723
2.06602
2.06623
2.06781
2.07083
2.07527
2.08118
2.0874
2.0929
2.09472
2.0967
2.09401
2.08811
2.0817
2.0753
2.0703
2.06713
2.06604
2.06675
2.0691
2.07285
2.07772
2.08381
2.09012
2.09548
2.09694
2.0998
2.09757
2.09138
2.08443
2.07742
2.07194
2.06859
2.06766
2.06874
2.07165
2.076
2.08121
2.08685
2.09205
2.09613
2.09688
2.10135
2.09997
2.09427
2.08752
2.08068
2.07516
2.07181
2.07099
2.07232
2.07562
2.08036
2.08554
2.09016
2.09301
2.09525
2.09496
2.10115
2.10076
2.09662
2.09101
2.08507
2.07998
2.07677
2.07602
2.07749
2.08091
2.08552
2.09004
2.09295
2.09373
2.09329
2.09176
2.09851
2.09959
2.09784
2.0948
2.09069
2.08645
2.08354
2.08286
2.08435
2.08759
2.09147
2.09414
2.09451
2.09301
2.09053
2.0879
2.09306
2.09564
2.09755
2.09847
2.0975
2.09482
2.09259
2.09197
2.09329
2.09584
2.09798
2.09757
2.09443
2.08991
2.08541
2.0826
2.08691
2.09021
2.09573
2.10079
2.10389
2.10497
2.10484
2.10472
2.10508
2.10525
2.10348
2.09933
2.09291
2.08567
2.07947
2.07731
2.08348
2.0865
2.09327
2.10146
2.1096
2.11617
2.1205
2.12188
2.11994
2.11488
2.10714
2.09851
2.09013
2.08255
2.07723
2.07615
2.08433
2.08632
2.09203
2.10123
2.11354
2.12679
2.13676
2.14021
2.13532
2.12386
2.10881
2.09652
2.08755
2.08302
2.08146
2.08123
2.0854
2.0873
2.0928
2.10333
2.11753
2.13298
2.14525
2.1495
2.14346
2.12969
2.1132
2.09831
2.08917
2.08784
2.08635
2.08553
2.08847
2.09052
2.09935
2.11012
2.12069
2.13078
2.13748
2.13996
2.1366
2.12882
2.1186
2.10876
2.0986
2.09142
2.08418
2.08259
2.10586
2.10764
2.11484
2.11818
2.12012
2.11894
2.11536
2.11394
2.11537
2.11859
2.12075
2.11909
2.11462
2.10593
2.09926
2.09751
2.14309
2.1401
2.13548
2.12681
2.11662
2.10384
2.0939
2.08969
2.09371
2.10353
2.1149
2.12312
2.13104
2.13211
2.12894
2.12953
2.1661
2.16122
2.14889
2.13387
2.11543
2.10085
2.09093
2.08747
2.09053
2.09946
2.11314
2.1291
2.14349
2.15476
2.16205
2.16577
2.15172
2.14922
2.13987
2.12919
2.11884
2.1102
2.10439
2.10276
2.10491
2.11067
2.12056
2.13415
2.14741
2.16092
2.17254
2.17658
2.10904
2.11008
2.10994
2.10983
2.11077
2.11172
2.11339
2.11441
2.11591
2.11753
2.11975
2.12417
2.12955
2.13603
2.14161
2.1429
2.07281
2.07539
2.0811
2.0878
2.09484
2.10113
2.10593
2.10886
2.11008
2.10957
2.10769
2.10484
2.10197
2.09911
2.09625
2.09461
2.06666
2.06789
2.0718
2.07712
2.08307
2.08859
2.09286
2.09548
2.09632
2.09535
2.09254
2.08828
2.0833
2.07851
2.07471
2.07332
2.08018
2.08016
2.08074
2.0824
2.08473
2.08711
2.089
2.09019
2.09058
2.09005
2.08858
2.08629
2.08383
2.08202
2.08111
2.0809
2.09648
2.09644
2.09627
2.09593
2.09567
2.09559
2.09565
2.09574
2.09577
2.09571
2.09559
2.09549
2.09545
2.09541
2.09546
2.0955
2.10919
2.10912
2.10894
2.10869
2.1084
2.10814
2.10796
2.10784
2.10781
2.10785
2.10797
2.10816
2.10842
2.10868
2.10894
2.10907
2.1208
2.12078
2.12075
2.12068
2.12059
2.12051
2.12043
2.12038
2.12036
2.12038
2.12044
2.12053
2.12061
2.12068
2.12073
2.12075
2.1265
2.1265
2.12649
2.12649
2.12649
2.12648
2.12647
2.12647
2.12646
2.12647
2.12648
2.12649
2.1265
2.12651
2.12652
2.12652
2.1327
2.1327
2.13271
2.13273
2.13274
2.13276
2.13277
2.13278
2.13278
2.13278
2.13277
2.13276
2.13274
2.13273
2.13272
2.13272
2.15371
2.15371
2.15371
2.15371
2.15371
2.15371
2.15371
2.15371
2.15371
2.15371
2.15371
2.15371
2.15371
2.15371
2.15371
2.15371
2.16412
2.16412
2.16411
2.16411
2.16411
2.1641
2.1641
2.1641
2.1641
2.1641
2.1641
2.1641
2.16411
2.16411
2.16411
2.16411
2.00455
2.00455
2.00455
2.00455
2.00455
2.00455
2.00455
2.00455
2.00455
2.00455
2.00455
2.00455
2.00455
2.00455
2.00455
2.00455
1.45323
1.45323
1.45323
1.45323
1.45324
1.45324
1.45324
1.45324
1.45324
1.45324
1.45324
1.45324
1.45324
1.45323
1.45323
1.45323
0.626437
0.626437
0.626438
0.626438
0.626438
0.626438
0.626438
0.626438
0.626438
0.626438
0.626438
0.626438
0.626438
0.626438
0.626438
0.626438
SCALARS u double
LOOKUP_TABLE default
0.000146875
0.000363536
0.000266362
0.000279133
0.000353193
0.000332375
0.000199264
5.60957e-05
-0.000117163
-0.000279187
-0.000475095
-0.00071533
-0.000935686
-0.000946459
-0.000631726
-6.05453e-05
0.000170412
0.000491011
0.0005958
0.00055133
0.00035717
0.000280304
0.000179175
8.26744e-06
-0.000211405
-0.000433887
-0.000608927
-0.000812267
-0.00135874
-0.00156853
-0.0010721
-0.000216287
0.000184249
0.000470229
0.000504441
0.000511262
0.000340412
0.000390837
0.000254
-4.19335e-05
-0.000340341
-0.000660153
-0.000872139
-0.00107004
-0.00132639
-0.00134308
-0.00118577
-0.00029496
0.000155102
0.000127978
-5.64286e-05
-0.000124875
-0.000283907
-0.000363812
-0.000244347
-7.34408e-05
-8.72896e-05
-0.000139708
-0.000401447
-0.000675806
-0.000794034
-0.000735262
-0.000763177
-0.00026669
0.00010669
-3.21332e-05
-0.000137795
-0.000230042
-0.000391591
-0.000411523
-0.000349939
-0.000160985
-1.70921e-05
-0.000123789
-0.000383717
-0.000559017
-0.000710319
-0.000677063
-0.000604413
-0.000184073
1.98059e-05
-0.000531986
-0.000933167
-0.00120753
-0.00135801
-0.00111113
-0.000768048
-0.000328814
6.5867e-05
0.000207972
0.000300446
0.000284707
1.88376e-05
-7.51486e-06
-0.000168465
-0.000145522
-9.81127e-05
-0.000957568
-0.00144823
-0.00155332
-0.00141895
-0.00114043
-0.000786445
-0.000355428
-0.000111348
0.000184535
0.000323649
0.000365497
0.000533417
0.000626272
0.000457477
-3.33704e-05
-0.00016368
-0.00136476
-0.00211451
-0.00239233
-0.00226742
-0.0017066
-0.00112663
-0.000555275
-0.000122727
0.000395837
0.00082896
0.00117955
0.00126424
0.00124991
0.000760924
3.2028e-05
-0.000274846
-0.00169883
-0.00248871
-0.00262871
-0.00225398
-0.00169998
-0.00113805
-0.000621976
-0.00023417
0.000239491
0.000783779
0.00139475
0.00187339
0.00186522
0.00127481
0.000140027
-0.000312446
-0.00194421
-0.00277695
-0.00304854
-0.00272353
-0.00213847
-0.00146908
-0.000807297
-0.000243416
0.000449402
0.00118792
0.00198681
0.00236472
0.00212349
0.00135971
0.000171865
-0.000381666
-0.00193706
-0.00277768
-0.00309685
-0.00269278
-0.00215036
-0.00148946
-0.000971888
-0.000310929
0.000452755
0.00119413
0.00204269
0.00277292
0.00252406
0.00182991
0.000305196
-0.000398954
-0.00202038
-0.00277739
-0.0032963
-0.00309384
-0.00257447
-0.00185382
-0.00114897
-0.000233009
0.000661117
0.00158292
0.00241301
0.00292743
0.00262425
0.00182648
0.000325438
-0.000410659
-0.00186948
-0.00246384
-0.00311755
-0.00309513
-0.00277897
-0.00214326
-0.00115976
-0.000203484
0.000772262
0.00169156
0.00247996
0.00288673
0.00273168
0.00196599
0.000391314
-0.000387558
-0.00172701
-0.00246562
-0.00316242
-0.00332905
-0.00308004
-0.00239557
-0.00131891
-0.000145857
0.000989061
0.00197964
0.00270231
0.00298815
0.00268657
0.00196248
0.000400067
-0.000381069
-0.001623
-0.00214823
-0.00293273
-0.00328037
-0.00315202
-0.00247312
-0.00139673
-0.00014487
0.00112906
0.00220595
0.00270515
0.00294724
0.0025822
0.0019282
0.000417229
-0.000339433
-0.00138059
-0.001907
-0.00277773
-0.00328162
-0.00323497
-0.00258514
-0.00148205
-9.1925e-05
0.00126503
0.00226736
0.00278609
0.0028721
0.00235626
0.00170964
0.000381316
-0.000305657
-0.00121403
-0.00182263
-0.00268776
-0.00317919
-0.00318332
-0.00256154
-0.00148858
-0.000139085
0.00120783
0.00225063
0.00279587
0.00284696
0.00233378
0.00170202
0.000381083
-0.000268156
-0.00101703
-0.00159057
-0.00244816
-0.00297984
-0.00312611
-0.00256673
-0.00148159
-0.000106621
0.00123904
0.0022385
0.00268526
0.00263637
0.00203829
0.00141717
0.000344454
-0.000224025
-0.000802148
-0.00133283
-0.00215987
-0.00273181
-0.00293259
-0.00243642
-0.00143707
-0.0001093
0.00119002
0.00214828
0.00249887
0.00238227
0.00179303
0.00133547
0.000330719
-0.000184016
-0.000625812
-0.00111534
-0.00186986
-0.00242266
-0.0026535
-0.00222851
-0.00133347
-0.000109954
0.00108794
0.00197095
0.00225685
0.00208056
0.00146916
0.00103453
0.000281476
-0.000147412
-0.000467752
-0.000922652
-0.00159067
-0.00210415
-0.00234127
-0.00199938
-0.00121568
-0.000112498
0.000971493
0.00176651
0.0019938
0.00178565
0.00120553
0.000816686
0.000240064
-0.000121038
-0.000346048
-0.000758593
-0.00131946
-0.00176265
-0.00199169
-0.00175309
-0.00109447
-0.000105544
0.000858097
0.00152573
0.00169254
0.00148263
0.000950969
0.000613922
0.000199913
-0.000101871
-0.000241977
-0.000602158
-0.00105806
-0.00142536
-0.00163697
-0.0014624
-0.000927481
-0.000105097
0.00070452
0.00127158
0.00138752
0.00118382
0.000716814
0.00043807
0.000162472
-8.72961e-05
-0.000158273
-0.00045289
-0.000805231
-0.00108974
-0.00126925
-0.00115281
-0.000743349
-9.02104e-05
0.000558484
0.00100417
0.00106518
0.000878077
0.00048523
0.000257365
0.000129239
-7.46924e-05
-9.46163e-05
-0.000317529
-0.000560073
-0.000758467
-0.000894489
-0.000821218
-0.00053492
-6.5641e-05
0.000404687
0.000720019
0.000728835
0.000568928
0.000262799
9.11618e-05
0.000102096
-5.71508e-05
-4.41767e-05
-0.000183634
-0.000312889
-0.000422011
-0.000514261
-0.000486067
-0.000319877
-2.92061e-05
0.00025724
0.000431711
0.000381919
0.000250602
3.75359e-05
-5.1676e-05
6.53668e-05
-4.05859e-05
1.67129e-06
-4.7323e-05
-6.53992e-05
-8.63135e-05
-0.00013178
-0.000143054
-0.000100909
6.31898e-06
0.000102095
0.000137366
4.05835e-05
-5.84188e-05
-0.000173897
-0.000180603
3.41063e-05
-2.66615e-05
5.62516e-05
9.88335e-05
0.000188124
0.000249094
0.000241543
0.000190133
0.000111121
4.04535e-05
-5.50763e-05
-0.000151412
-0.00028608
-0.00034547
-0.000365453
-0.000286545
6.64831e-06
-1.32405e-05
0.000122702
0.00025453
0.000442652
0.00058059
0.000604908
0.000507936
0.000307536
6.43178e-05
-0.000207337
-0.000423186
-0.00058596
-0.000601389
-0.000528784
-0.000371018
-2.13903e-05
4.01472e-06
0.000197006
0.000418396
0.000692216
0.000895987
0.00094369
0.000799296
0.000483059
8.76825e-05
-0.000344602
-0.000663512
-0.000848168
-0.00082232
-0.000667864
-0.000446813
-3.98923e-05
2.26496e-05
0.000284158
0.000579504
0.000926892
0.00118414
0.00125017
0.00106429
0.00064752
0.000111179
-0.000458536
-0.000860803
-0.00106518
-0.00101188
-0.000791844
-0.000515594
-5.45142e-05
3.82669e-05
0.000374696
0.000727118
0.0011373
0.00144448
0.00153039
0.00130686
0.000805156
0.00014544
-0.000536624
-0.00101714
-0.00124515
-0.00117633
-0.000908715
-0.000582936
-6.8096e-05
5.42946e-05
0.000455056
0.000856367
0.00133119
0.00167993
0.00178406
0.00153729
0.000962023
0.000194372
-0.000586587
-0.00114043
-0.0013963
-0.00132296
-0.00102021
-0.000649542
-8.12329e-05
7.02488e-05
0.00052531
0.000974193
0.00151006
0.00189905
0.00202947
0.00176188
0.00112271
0.000256893
-0.000610674
-0.00123933
-0.00153277
-0.00146225
-0.00113131
-0.00071874
-9.50483e-05
8.63722e-05
0.000591213
0.00108632
0.00169006
0.00212361
0.00227728
0.00198755
0.00128928
0.000329661
-0.000626428
-0.00133258
-0.00166315
-0.00159326
-0.00123541
-0.000780967
-0.000108727
0.000100571
0.000661356
0.00121646
0.00188835
0.00236235
0.00253241
0.00221399
0.00145602
0.000407637
-0.00063818
-0.00141878
-0.00178655
-0.00171773
-0.00132993
-0.000834517
-0.000122886
0.00011414
0.000744385
0.00137474
0.00211065
0.00261971
0.00279291
0.00243708
0.00161825
0.000488018
-0.000643388
-0.00149461
-0.00189794
-0.00182911
-0.00140584
-0.000873657
-0.000135801
0.000129098
0.000845488
0.00156198
0.00235428
0.00288761
0.00305008
0.00265102
0.00177369
0.000572157
-0.000635996
-0.00155244
-0.00198878
-0.00192006
-0.00145634
-0.000892199
-0.00014657
0.000147288
0.000965542
0.00176704
0.00260551
0.0031534
0.00329895
0.00285912
0.00192842
0.00066211
-0.000609805
-0.00158415
-0.00205411
-0.00198857
-0.00148947
-0.0009017
-0.00015518
0.0001703
0.00109694
0.00197299
0.00284943
0.0034094
0.00354292
0.00307608
0.00210164
0.000773494
-0.000566936
-0.0015952
-0.00209437
-0.00203677
-0.00151735
-0.000906367
-0.000160803
0.000197281
0.00123553
0.00217547
0.00308192
0.00365749
0.00380087
0.00333673
0.00232127
0.000916161
-0.000503907
-0.00158086
-0.00210826
-0.00207048
-0.001542
-0.000916667
-0.000164848
0.000228017
0.00137794
0.00238241
0.00332051
0.00391612
0.00407642
0.0036098
0.00254483
0.00106935
-0.000423899
-0.00154823
-0.00211871
-0.00211327
-0.00160334
-0.000949527
-0.000168987
0.000266083
0.00156091
0.00264702
0.00359071
0.00416151
0.00424092
0.00366953
0.00257655
0.00109464
-0.000361123
-0.00151263
-0.002132
-0.00216742
-0.00168396
-0.00100523
-0.000176637
0.000311578
0.00178534
0.00298548
0.00394693
0.00457007
0.00467206
0.0040807
0.00289083
0.00129047
-0.000267096
-0.00147553
-0.00213092
-0.00218595
-0.0017297
-0.00106182
-0.000189477
0.000341556
0.00194619
0.00322933
0.00437392
0.00509527
0.00519021
0.004547
0.00326001
0.00152564
-0.000171019
-0.00147862
-0.00219863
-0.002305
-0.00186653
-0.00116364
-0.000208066
0.000418119
0.00232654
0.00380527
0.00492862
0.00556871
0.00558878
0.0048703
0.00351846
0.0017157
-8.49494e-05
-0.00150376
-0.00231725
-0.00249441
-0.00207064
-0.00130038
-0.000232959
0.000504048
0.00271927
0.0043861
0.00547769
0.00564759
0.00564771
0.00489908
0.00353438
0.00173707
-5.93015e-05
-0.00152912
-0.00241456
-0.00264775
-0.00223525
-0.00142594
-0.000264633
0.000519077
0.00275554
0.00446002
0.00577653
0.00635287
0.00626752
0.0053712
0.0038691
0.00195801
3.08782e-05
-0.0015148
-0.00245103
-0.00268067
-0.00224827
-0.00143385
-0.000275299
0.000641792
0.0032615
0.00525793
0.0067682
0.00749312
0.0072302
0.00606718
0.00433208
0.00222761
8.39354e-05
-0.00166307
-0.00269181
-0.00297587
-0.00248742
-0.00158766
-0.000318067
0.000768516
0.00383176
0.0061865
0.00794946
0.00859601
0.00809854
0.00661428
0.00466732
0.00241962
0.000101181
-0.00185424
-0.00303623
-0.00336278
-0.00279038
-0.00175412
-0.000356996
0.000789607
0.00392856
0.00633996
0.00815768
0.00882146
0.00824328
0.00666353
0.00468782
0.00243079
7.09769e-05
-0.00191807
-0.00314274
-0.00351426
-0.00293247