# vtk DataFile Version 3.0
Grid data
ASCII
DATASET STRUCTURED_POINTS
DIMENSIONS 16 128 1
ORIGIN 0 0 0
SPACING 0.015625 0.0078125 1
POINT_DATA 2048
SCALARS rho double
LOOKUP_TABLE default
0.994759
0.994737
0.994744
0.994787
0.994717
0.994471
0.994269
0.994208
0.994221
0.99431
0.994442
0.994442
0.994381
0.994382
0.994412
0.994417
0.988253
0.988274
0.988379
0.988577
0.988773
0.988593
0.988229
0.988208
0.988325
0.988567
0.988773
0.988234
0.987757
0.987593
0.987473
0.987437
0.978935
0.978955
0.978974
0.979061
0.979666
0.980311
0.980245
0.980298
0.980378
0.980643
0.980782
0.979455
0.978771
0.978544
0.978305
0.978239
0.973001
0.973003
0.973026
0.973038
0.973765
0.97591
0.976921
0.97677
0.97637
0.975921
0.974792
0.973829
0.973107
0.972963
0.972823
0.97278
0.972025
0.972023
0.972031
0.972014
0.971785
0.971383
0.971764
0.971719
0.971453
0.971134
0.970862
0.97202
0.972177
0.972066
0.971947
0.971911
0.969422
0.969401
0.969416
0.969387
0.969016
0.969095
0.969336
0.969429
0.969294
0.969059
0.968994
0.96951
0.969636
0.969602
0.969569
0.969555
0.96716
0.967111
0.967134
0.967283
0.967831
0.968457
0.968757
0.968934
0.968856
0.968611
0.968451
0.967915
0.967566
0.967498
0.967509
0.967524
0.966223
0.966147
0.966191
0.966424
0.967079
0.967697
0.968099
0.968198
0.968173
0.968025
0.967782
0.967154
0.966728
0.966641
0.966663
0.966719
0.966723
0.966678
0.966721
0.966847
0.967343
0.967838
0.967954
0.968006
0.968007
0.967944
0.967786
0.967462
0.967166
0.967151
0.967139
0.967188
0.96751
0.967458
0.967469
0.967601
0.967754
0.967844
0.96783
0.967826
0.967842
0.967895
0.967904
0.967877
0.967825
0.967833
0.967678
0.967494
0.968314
0.968256
0.968325
0.968383
0.968328
0.968213
0.968217
0.968185
0.968214
0.968289
0.968421
0.968506
0.968541
0.968461
0.968311
0.968104
0.968858
0.968765
0.968683
0.968455
0.968345
0.968229
0.968254
0.968445
0.968562
0.968565
0.968559
0.968578
0.968602
0.968483
0.96838
0.968571
0.969172
0.969054
0.968995
0.968759
0.968642
0.968588
0.968636
0.968741
0.968858
0.968982
0.969023
0.969082
0.969101
0.969053
0.969183
0.969377
0.969198
0.969077
0.969029
0.969117
0.96904
0.968941
0.968861
0.968825
0.968925
0.969141
0.969412
0.969587
0.969699
0.969807
0.969909
0.970066
0.969574
0.969423
0.969356
0.969436
0.9693
0.969139
0.968999
0.968927
0.969016
0.969261
0.969591
0.969858
0.970113
0.970266
0.97019
0.970216
0.970074
0.969902
0.96975
0.969461
0.969278
0.969112
0.968991
0.968955
0.969054
0.969269
0.969532
0.96979
0.970054
0.97034
0.970586
0.970674
0.970522
0.970322
0.970081
0.969699
0.969393
0.969172
0.969032
0.968994
0.969079
0.969275
0.969536
0.969836
0.97017
0.97054
0.970831
0.970955
0.970755
0.970537
0.970261
0.969883
0.969542
0.969279
0.969102
0.969039
0.969104
0.969287
0.969564
0.969901
0.970271
0.970629
0.970853
0.970981
0.970744
0.970529
0.970274
0.969937
0.969608
0.969341
0.969145
0.96906
0.969114
0.969278
0.969559
0.969897
0.970268
0.97061
0.970826
0.970953
0.970593
0.970394
0.970185
0.96989
0.969576
0.969317
0.969116
0.96901
0.969051
0.969225
0.969509
0.969857
0.970232
0.970568
0.970763
0.970891
0.970453
0.970268
0.970084
0.969804
0.969518
0.969236
0.969006
0.968889
0.968918
0.969078
0.969404
0.969787
0.970191
0.970533
0.970713
0.97084
0.970426
0.97024
0.970032
0.969693
0.969311
0.968927
0.96863
0.968528
0.968629
0.968918
0.96932
0.969749
0.970141
0.970469
0.970626
0.970751
0.970514
0.970311
0.970045
0.969595
0.969067
0.968563
0.968185
0.968058
0.968198
0.968611
0.969109
0.969578
0.969984
0.970315
0.970498
0.970619
0.970641
0.970413
0.970077
0.969543
0.968934
0.96835
0.967934
0.96776
0.967878
0.968301
0.968851
0.969337
0.969746
0.970091
0.970313
0.97043
0.970683
0.970435
0.970066
0.969542
0.968973
0.968403
0.96794
0.967715
0.967805
0.968163
0.968621
0.969125
0.969608
0.969973
0.97017
0.970299
0.970595
0.970344
0.969987
0.969479
0.968922
0.968349
0.967859
0.967607
0.967671
0.967973
0.96838
0.968868
0.969353
0.969739
0.969968
0.970108
0.970402
0.970159
0.969815
0.9693
0.968756
0.968194
0.967707
0.967449
0.967481
0.967754
0.96818
0.968624
0.969081
0.969469
0.969738
0.969895
0.970206
0.969969
0.969622
0.969079
0.968558
0.968035
0.967551
0.967251
0.967217
0.967497
0.967924
0.968427
0.968906
0.969246
0.96955
0.969742
0.970028
0.969797
0.96946
0.968947
0.96832
0.967709
0.9672
0.966909
0.966891
0.967159
0.967615
0.968146
0.968635
0.968949
0.969258
0.969458
0.969846
0.969608
0.969271
0.968718
0.968032
0.967333
0.966785
0.966515
0.966523
0.966826
0.967313
0.967829
0.968292
0.968634
0.968943
0.969133
0.969686
0.969435
0.969052
0.968474
0.967776
0.967083
0.966526
0.966219
0.966239
0.966557
0.967009
0.967508
0.967985
0.968177
0.968484
0.968682
0.969452
0.969211
0.968832
0.96824
0.967568
0.966892
0.966337
0.966043
0.966009
0.966251
0.966659
0.967116
0.967592
0.967817
0.968131
0.968326
0.969275
0.969033
0.968616
0.967965
0.967284
0.966666
0.966151
0.965837
0.965759
0.965911
0.96621
0.966669
0.967216
0.967608
0.967953
0.968137
0.969088
0.96884
0.968373
0.967723
0.967027
0.966322
0.965737
0.965356
0.965236
0.965323
0.965691
0.966257
0.966905
0.96742
0.967826
0.968005
0.968921
0.968628
0.968091
0.967377
0.966603
0.965873
0.965243
0.96481
0.964711
0.964869
0.96534
0.965938
0.966627
0.967204
0.967651
0.967839
0.968663
0.968354
0.96785
0.967104
0.966306
0.965494
0.964862
0.964455
0.964427
0.964677
0.96518
0.965704
0.966288
0.966732
0.967116
0.967288
0.968457
0.96817
0.96773
0.96703
0.966229
0.965387
0.964745
0.964409
0.964402
0.964696
0.965146
0.965592
0.965979
0.966096
0.966353
0.966466
0.968354
0.96815
0.967703
0.966963
0.966198
0.965365
0.964711
0.964359
0.964295
0.964533
0.964839
0.96501
0.965254
0.965464
0.965612
0.965655
0.968171
0.967904
0.967376
0.966703
0.965914
0.965017
0.964322
0.963976
0.963825
0.963888
0.964003
0.9642
0.964497
0.964751
0.964957
0.964998
0.967582
0.967286
0.966779
0.966078
0.965277
0.96439
0.963671
0.963292
0.963067
0.962997
0.963073
0.963397
0.963836
0.964179
0.964485
0.964557
0.96675
0.966415
0.965942
0.965332
0.964605
0.963833
0.963279
0.962943
0.962743
0.962718
0.962904
0.963217
0.963597
0.963898
0.964217
0.964294
0.966384
0.966075
0.965614
0.964903
0.964229
0.963641
0.963193
0.962949
0.962843
0.962871
0.963082
0.963322
0.963597
0.963797
0.964019
0.964158
0.967315
0.966934
0.966415
0.965569
0.964689
0.963905
0.963518
0.9634
0.963255
0.963276
0.963386
0.963501
0.963595
0.963652
0.963766
0.963781
0.968574
0.968073
0.967436
0.96632
0.965012
0.963951
0.963433
0.963209
0.963041
0.963144
0.963148
0.963146
0.963105
0.963075
0.963077
0.963082
0.968668
0.968129
0.967332
0.966241
0.96464
0.963101
0.96241
0.961728
0.961422
0.961573
0.96163
0.961713
0.961879
0.962064
0.962186
0.962203
0.968302
0.967714
0.966897
0.965721
0.964163
0.962786
0.962276
0.961395
0.960985
0.961085
0.961072
0.961105
0.961164
0.961279
0.961459
0.961501
0.967655
0.967023
0.96606
0.965181
0.964471
0.963752
0.963411
0.96278
0.96242
0.962395
0.962185
0.961989
0.961798
0.961602
0.961522
0.961523
0.968223
0.967365
0.966039
0.96489
0.964611
0.964268
0.963735
0.963126
0.96292
0.962856
0.962638
0.962407
0.96214
0.961987
0.961977
0.962026
0.970621
0.969465
0.967569
0.96545
0.964872
0.963189
0.961703
0.960741
0.96049
0.960403
0.960555
0.960988
0.961575
0.962211
0.962582
0.962736
0.973845
0.972166
0.969259
0.966003
0.965087
0.962737
0.960815
0.959716
0.959424
0.959292
0.959571
0.960241
0.960995
0.961823
0.962273
0.962521
0.974789
0.972936
0.969618
0.966316
0.965661
0.963647
0.962191
0.961084
0.96079
0.960597
0.960615
0.960725
0.960727
0.960969
0.961217
0.961472
0.980661
0.978221
0.973621
0.968495
0.965688
0.963352
0.962815
0.961434
0.960806
0.960734
0.960757
0.96075
0.960555
0.960795
0.961145
0.961439
0.987198
0.984725
0.979778
0.972652
0.966287
0.962029
0.960922
0.959208
0.95822
0.958171
0.958859
0.960026
0.960903
0.962471
0.963691
0.964303
0.995323
0.992199
0.985488
0.976173
0.96666
0.961224
0.959552
0.957452
0.956278
0.956312
0.957485
0.959395
0.960644
0.963109
0.965242
0.966402
1.00323
0.998802
0.989062
0.977841
0.966
0.960374
0.959531
0.956851
0.955153
0.955216
0.956626
0.95863
0.958909
0.961919
0.964613
0.965993
1.04487
1.03692
1.01471
0.991205
0.970769
0.960354
0.959083
0.955417
0.953492
0.953578
0.955616
0.958125
0.958162
0.962243
0.966788
0.969007
1.13424
1.12124
1.07387
1.02159
0.980711
0.964246
0.957262
0.953756
0.952492
0.952851
0.955514
0.959962
0.960854
0.966997
0.972918
0.975742
1.202
1.18444
1.11418
1.03604
1.00971
0.974926
0.956135
0.952504
0.950916
0.951678
0.955629
0.961845
0.964003
0.974646
0.988602
0.993092
1.416
1.38671
1.25959
1.10318
1.0409
0.985377
0.95675
0.950589
0.947648
0.948083
0.954364
0.961947
0.965836
0.983153
1.00878
1.01544
1.6398
1.60036
1.43818
1.21431
1.04386
0.990422
0.956861
0.94982
0.945912
0.945437
0.955777
0.970254
0.975066
1.00367
1.01829
1.02517
1.77347
1.72882
1.55433
1.30125
1.07695
0.997661
0.957313
0.950645
0.946981
0.946104
0.960732
0.98598
0.993829
1.03699
1.06567
1.0756
1.78963
1.74296
1.56276
1.305
1.10845
0.99695
0.960812
0.951501
0.945565
0.945653
0.965002
0.988142
0.999139
1.05067
1.12813
1.14312
1.88509
1.83222
1.63353
1.34822
1.10973
1.02209
0.961963
0.947768
0.93929
0.941507
0.966264
1.00592
1.03181
1.11079
1.17118
1.19235
1.93648
1.88015
1.67202
1.38427
1.12956
1.04523
0.967129
0.94629
0.933921
0.938824
0.972587
1.02895
1.07645
1.2103
1.32493
1.36685
1.93751
1.88145
1.67838
1.39323
1.14818
1.06874
0.976102
0.946876
0.932392
0.943735
0.980436
1.03323
1.0916
1.29563
1.52044
1.59116
1.96759
1.9004
1.67967
1.39812
1.16062
1.08631
0.989286
0.944552
0.931851
0.949176
0.985214
1.06637
1.16297
1.43253
1.70183
1.77843
1.97576
1.90507
1.67221
1.39041
1.16094
1.09115
0.997693
0.939974
0.931009
0.950776
0.98366
1.0963
1.26295
1.55027
1.77986
1.84714
1.98101
1.90744
1.66411
1.37579
1.15387
1.08692
0.99745
0.938359
0.930724
0.950913
0.989178
1.12358
1.3332
1.60186
1.79957
1.85643
1.99273
1.91451
1.65871
1.36487
1.1435
1.07767
0.99141
0.933816
0.929978
0.953757
0.997229
1.13782
1.35243
1.60715
1.83161
1.89789
1.99958
1.91863
1.65897
1.35994
1.13496
1.06647
0.985867
0.933461
0.933972
0.959495
1.00177
1.14187
1.36628
1.62961
1.85502
1.92177
2.00086
1.92249
1.66277
1.36019
1.12947
1.05757
0.979241
0.934161
0.940176
0.964619
1.00575
1.14751
1.37513
1.64155
1.86135
1.92478
2.00332
1.92555
1.66348
1.35831
1.12616
1.05382
0.972514
0.929905
0.941169
0.968684
1.00841
1.14874
1.37502
1.63931
1.86596
1.93557
2.00638
1.92906
1.66728
1.35904
1.12358
1.04943
0.967993
0.925681
0.940118
0.971571
1.0099
1.14607
1.36913
1.63255
1.86781
1.94348
2.00784
1.93127
1.67136
1.36617
1.12508
1.04865
0.966122
0.922554
0.93878
0.973185
1.0106
1.14401
1.36258
1.62988
1.86992
1.94508
2.00666
1.93118
1.67392
1.3674
1.12344
1.03992
0.960547
0.921462
0.935323
0.96639
1.00529
1.1437
1.35894
1.6294
1.87262
1.95042
2.00914
1.93809
1.68739
1.37939
1.13126
1.00034
0.951684
0.922933
0.935213
0.951568
0.99531
1.14046
1.35498
1.62888
1.87713
1.95651
2.01488
1.95236
1.71567
1.40277
1.13483
0.985234
0.9422
0.919642
0.928829
0.940513
0.987715
1.13891
1.36267
1.63806
1.89689
1.9804
2.01865
1.96545
1.75053
1.43083
1.15235
1.03502
0.956082
0.91857
0.920594
0.942238
0.989414
1.13884
1.38796
1.68226
1.92909
2.0023
2.02146
1.97535
1.78024
1.46167
1.18751
1.09916
0.992327
0.926696
0.913858
0.949807
1.02965
1.12784
1.40588
1.74701
1.95933
2.00917
2.03
1.9869
1.79392
1.47866
1.20469
1.11422
1.00386
0.93368
0.913251
0.960547
1.06655
1.16758
1.46783
1.82417
1.9893
2.01759
2.04158
2.01449
1.85831
1.55121
1.28202
1.19679
1.06343
0.952277
0.908635
0.96045
1.0713
1.24626
1.5726
1.89537
2.01518
2.0252
2.05307
2.0424
1.93147
1.67038
1.41452
1.33343
1.10457
0.960027
0.905553
0.969199
1.08847
1.35219
1.68875
1.94778
2.0266
2.02918
2.05572
2.05309
1.98313
1.78704
1.57314
1.50531
1.23411
1.00355
0.889604
0.98228
1.16987
1.47211
1.78076
1.97619
2.03536
2.03443
2.05241
2.05238
2.00537
1.86164
1.6988
1.64978
1.39007
1.07544
0.860995
0.995907
1.26694
1.57112
1.78717
1.97618
2.03622
2.03814
2.04933
2.05025
2.00652
1.86665
1.71315
1.66879
1.41965
1.10519
0.825075
1.04078
1.30541
1.59803
1.84478
2.00365
2.04186
2.04064
2.05435
2.05868
2.02889
1.92457
1.8026
1.77172
1.5522
1.23347
0.931332
1.18961
1.45818
1.7212
1.91517
2.02181
2.04368
2.04067
2.06489
2.06879
2.05135
1.98786
1.89721
1.878
1.69723
1.4345
1.20147
1.41533
1.63963
1.84667
1.9637
2.02646
2.04304
2.03939
2.07274
2.07728
2.06181
2.02055
1.97156
1.88227
1.76806
1.65516
1.564
1.65736
1.77687
1.85576
1.96572
2.03368
2.04687
2.04233
2.07458
2.07916
2.06152
2.02535
2.00279
1.93545
1.87439
1.85687
1.8461
1.86507
1.89331
1.92301
1.98851
2.03503
2.04694
2.04304
2.07872
2.08043
2.06796
2.03849
2.00676
1.98965
1.95723
1.9427
1.94318
1.9466
1.95793
1.98359
2.01751
2.04525
2.05507
2.05162
2.08393
2.08454
2.0748
2.0495
2.02248
2.01721
1.99166
1.95711
1.95432
1.95701
1.97993
2.01128
2.03714
2.05597
2.06353
2.06113
2.08898
2.08969
2.08103
2.06099
2.03893
2.02056
1.99687
1.9822
1.97757
1.98608
2.00576
2.01524
2.0379
2.05706
2.06635
2.06634
2.0941
2.09472
2.0864
2.0693
2.04986
2.02743
2.01133
2.00842
2.00148
1.99601
2.00889
2.02617
2.04579
2.0641
2.07361
2.07423
2.09801
2.0978
2.08798
2.06974
2.05068
2.03957
2.02732
2.02714
2.02054
2.01276
2.02093
2.03755
2.05553
2.07137
2.07965
2.07992
2.10121
2.10107
2.09193
2.07506
2.05835
2.05393
2.04075
2.02832
2.02286
2.02823
2.03698
2.04957
2.06431
2.07727
2.08432
2.08458
2.10291
2.10315
2.09564
2.08177
2.06765
2.06462
2.05221
2.03989
2.03668
2.04299
2.05088
2.05877
2.0686
2.08018
2.08668
2.08687
2.1049
2.10532
2.09908
2.08832
2.07651
2.06576
2.05893
2.05302
2.05042
2.0515
2.05701
2.06371
2.07409
2.08418
2.08953
2.08952
2.1053
2.10601
2.10087
2.09176
2.08207
2.07376
2.06792
2.0638
2.06227
2.06276
2.06683
2.0713
2.07929
2.0867
2.091
2.09062
2.10492
2.1056
2.10198
2.0951
2.08704
2.08152
2.07554
2.0709
2.06845
2.06954
2.073
2.07814
2.08403
2.089
2.092
2.09152
2.10385
2.10469
2.10226
2.09739
2.09118
2.08733
2.08195
2.07808
2.07633
2.07711
2.07948
2.08251
2.08664
2.09028
2.09237
2.09175
2.10277
2.10386
2.10249
2.09934
2.09468
2.09056
2.08676
2.08394
2.08271
2.08291
2.08405
2.08661
2.08951
2.09184
2.09299
2.09227
2.10184
2.10293
2.10221
2.09996
2.09664
2.09348
2.09075
2.08893
2.08795
2.08761
2.08819
2.08981
2.09162
2.09308
2.09369
2.093
2.10139
2.10234
2.10195
2.10018
2.09748
2.09513
2.09302
2.09142
2.09061
2.09053
2.0909
2.09128
2.09304
2.09427
2.09458
2.09403
2.10163
2.10232
2.10179
2.1002
2.09799
2.09603
2.09426
2.09315
2.09258
2.09223
2.09198
2.09276
2.09398
2.09543
2.09565
2.09525
2.10253
2.10304
2.10224
2.10054
2.09841
2.09652
2.09493
2.09398
2.09372
2.09345
2.09348
2.09432
2.09558
2.09647
2.09708
2.09702
2.10409
2.10446
2.10362
2.10175
2.09912
2.09689
2.09534
2.09461
2.09423
2.09395
2.09476
2.09568
2.09745
2.09867
2.0995
2.09958
2.10647
2.1065
2.1057
2.10377
2.10059
2.09753
2.09576
2.09524
2.0946
2.09453
2.09501
2.09595
2.09845
2.10161
2.10283
2.10299
2.10953
2.10931
2.10746
2.10462
2.10151
2.09887
2.0968
2.09573
2.0952
2.09558
2.09684
2.09896
2.10172
2.10416
2.10631
2.10679
2.11305
2.11291
2.11139
2.10832
2.10475
2.10134
2.09856
2.09731
2.09685
2.09776
2.10031
2.10417
2.10746
2.10913
2.11059
2.11095
2.11664
2.11666
2.11569
2.1126
2.10904
2.1047
2.10139
2.10029
2.09999
2.10114
2.10427
2.10883
2.11208
2.11401
2.1147
2.11486
2.11998
2.11952
2.1162
2.11287
2.10954
2.10785
2.10605
2.10503
2.10491
2.10576
2.1073
2.109
2.11217
2.11473
2.11717
2.11758
2.12289
2.12274
2.12039
2.11775
2.11556
2.11392
2.11257
2.11181
2.11168
2.11173
2.11206
2.11299
2.11561
2.11737
2.11866
2.11873
2.12464
2.12553
2.12544
2.12446
2.12318
2.12172
2.1208
2.12028
2.11993
2.11907
2.11821
2.11856
2.12021
2.11988
2.11924
2.11872
2.12476
2.12642
2.12843
2.12974
2.12963
2.12937
2.12955
2.12941
2.12865
2.12699
2.12474
2.12221
2.1207
2.1203
2.1195
2.11853
2.12323
2.12482
2.12766
2.13028
2.13221
2.13517
2.1371
2.13743
2.13633
2.13389
2.13045
2.12767
2.12455
2.12228
2.12018
2.11875
2.12308
2.12447
2.12862
2.1332
2.13703
2.14002
2.14196
2.1425
2.1415
2.13905
2.13579
2.13363
2.1293
2.12531
2.12232
2.12083
2.12856
2.1299
2.1336
2.1371
2.1395
2.14141
2.14253
2.14342
2.1432
2.14156
2.13926
2.13404
2.13138
2.12757
2.12427
2.1235
2.13511
2.13485
2.13551
2.1368
2.13834
2.13907
2.14021
2.14162
2.14189
2.14153
2.1404
2.13888
2.13744
2.13328
2.12975
2.12966
2.15077
2.14945
2.14769
2.14388
2.13992
2.13828
2.13884
2.13871
2.13896
2.14028
2.14327
2.14352
2.13899
2.13862
2.13939
2.14033
2.16948
2.16664
2.15922
2.15478
2.14941
2.14273
2.13795
2.13589
2.13815
2.14092
2.14542
2.15031
2.15248
2.15295
2.15557
2.15681
2.18493
2.18257
2.17486
2.16741
2.16315
2.15304
2.13879
2.13672
2.1416
2.14499
2.14899
2.15697
2.16598
2.16885
2.17415
2.17607
2.19088
2.1897
2.1836
2.17417
2.16332
2.15534
2.14976
2.14251
2.13844
2.13981
2.14606
2.15407
2.16658
2.1811
2.19082
2.1936
2.18846
2.1877
2.18484
2.18198
2.18192
2.17737
2.17447
2.16769
2.15701
2.15689
2.16287
2.17142
2.17795
2.18982
2.19464
2.19712
2.17955
2.181
2.18577
2.19839
2.20548
2.2106
2.21084
2.21126
2.21251
2.21259
2.21111
2.2018
2.19319
2.18046
2.17531
2.17204
2.22153
2.22961
2.246
2.26621
2.28593
2.30138
2.31752
2.3232
2.33
2.32956
2.30988
2.287
2.25864
2.23175
2.20727
2.20028
2.34304
2.34954
2.36771
2.39557
2.42997
2.44617
2.45838
2.46934
2.46984
2.46133
2.45689
2.43173
2.39067
2.35596
2.32913
2.32114
2.65477
2.6588
2.67329
2.67428
2.6796
2.69522
2.68896
2.682
2.68719
2.69886
2.699
2.68102
2.68358
2.6813
2.674
2.67606
2.37198
2.37134
2.36755
2.35426
2.31885
2.27797
2.25522
2.247
2.24925
2.26197
2.28503
2.3343
2.35164
2.35856
2.37017
2.37355
SCALARS u double
LOOKUP_TABLE default
-2.06901e-05
-2.74081e-05
-5.08928e-05
-4.26712e-05
-8.76783e-06
1.77168e-05
3.13604e-05
4.95825e-05
7.47208e-05
0.000104581
0.000115215
9.00263e-05
4.18298e-05
-1.4224e-05
-2.11787e-05
-9.69271e-06
-2.541e-05
-9.9919e-05
-0.000159093
-0.000169627
-0.000122536
-2.33164e-05
4.64932e-05
0.000164483
0.000261059
0.000357957
0.000421003
0.000405116
0.000305301
0.000153221
7.06362e-05
1.47447e-05
-1.84389e-05
-5.97826e-05
-0.000181288
-0.000247977
-0.000170516
4.09556e-06
0.000138239
0.000241178
0.000335681
0.000446565
0.000515676
0.000500558
0.000417374
0.000283664
0.000149088
2.9643e-05
5.95035e-06
6.47707e-05
5.71673e-05
-6.58834e-06
-9.84607e-06
9.03333e-05
0.000154384
0.000212444
0.000273704
0.000360248
0.000398317
0.000360477
0.000329067
0.000265486
0.000155736
3.30984e-05
1.09331e-05
7.39004e-05
8.99303e-05
0.000145145
0.000204355
0.000220032
0.000212549
0.000193218
0.000194457
0.000216486
0.000224794
0.000265672
0.000263493
0.000249903
0.000173415
3.72748e-05
3.26705e-05
0.000237284
0.000404259
0.000504789
0.00045598
0.000338363
0.000249516
0.000147475
6.1834e-05
5.13843e-06
1.04511e-06
4.08173e-05
8.0105e-05
8.74577e-05
7.0956e-05
2.14747e-05
4.59301e-05
0.000296505
0.000478499
0.000575916
0.00060124
0.000517303
0.000358041
0.000176262
-2.62764e-06
-0.000101887
-0.000135324
-0.000100917
-3.54151e-05
-5.60928e-07
1.25735e-05
1.01138e-05
6.77523e-05
0.000448998
0.00070695
0.000905437
0.00086779
0.000719837
0.000475418
0.000193385
-5.90991e-05
-0.000253724
-0.000342571
-0.000366136
-0.000311894
-0.000243072
-0.000157107
-1.46905e-05
8.40158e-05
0.000465225
0.000712315
0.000931859
0.00103195
0.000898968
0.000621837
0.000303887
-1.20299e-05
-0.000273387
-0.00044518
-0.000513029
-0.000491527
-0.000262145
-0.000167269
-3.36153e-05
0.000101008
0.000609019
0.000941852
0.00120632
0.00126054
0.00107836
0.000726529
0.000309232
-5.58306e-05
-0.0003638
-0.000573589
-0.000669342
-0.000638902
-0.000494969
-0.000331675
-5.71593e-05
0.000130975
0.000735578
0.00112906
0.00141464
0.00141795
0.00120613
0.000836912
0.000393712
-2.9353e-05
-0.000390804
-0.00066085
-0.000798894
-0.000780134
-0.00066887
-0.000474804
-8.07189e-05
0.000157958
0.000851304
0.00125854
0.00156487
0.00155192
0.00133331
0.000948214
0.000469525
-3.25756e-05
-0.000467794
-0.000756974
-0.00091247
-0.000915509
-0.000752243
-0.000555686
-0.000105606
0.000175656
0.000935183
0.00134631
0.00162332
0.0016406
0.00142951
0.00103726
0.000517261
-4.825e-05
-0.000538738
-0.000855912
-0.00101675
-0.00102937
-0.000840243
-0.000594824
-0.000112992
0.000181114
0.000976114
0.00140366
0.00168552
0.001702
0.00149906
0.00109627
0.000539746
-6.92585e-05
-0.000592974
-0.000928812
-0.00108148
-0.00106731
-0.000852941
-0.000591969
-0.000108369
0.00017719
0.000986417
0.00143289
0.00172145
0.00175133
0.00154538
0.00112173
0.000544344
-8.41259e-05
-0.000615457
-0.000948933
-0.0010957
-0.00104267
-0.000792262
-0.000536117
-9.60245e-05
0.000168015
0.000987927
0.00146813
0.00177982
0.00180728
0.00157156
0.00112844
0.000542017
-8.74044e-05
-0.000606291
-0.000917202
-0.00103761
-0.000977394
-0.000748827
-0.0004807
-8.04701e-05
0.000160747
0.00099441
0.00151139
0.00183812
0.0018607
0.00160787
0.00114383
0.000549364
-6.76065e-05
-0.00056425
-0.000845665
-0.000959323
-0.000915667
-0.00071228
-0.000454194
-7.02594e-05
0.000162308
0.00102486
0.00155448
0.00188029
0.00189723
0.00163695
0.0011722
0.000587153
-8.89097e-06
-0.000484141
-0.000749359
-0.000879516
-0.000876358
-0.000715593
-0.000471826
-6.79135e-05
0.000166966
0.00105691
0.00158645
0.00189553
0.00189836
0.00164112
0.0011992
0.000655399
0.000103114
-0.000360009
-0.000669013
-0.000846325
-0.0008658
-0.000733393
-0.000501115
-6.96224e-05
0.000172245
0.00106797
0.0015834
0.00187365
0.00185457
0.00160455
0.00120448
0.000725209
0.00022386
-0.000221097
-0.000547805
-0.000763047
-0.000836967
-0.000738699
-0.000518061
-7.37958e-05
0.000174384
0.00105309
0.00154386
0.00181874
0.00179356
0.00155337
0.00118171
0.000736638
0.000330266
-8.69148e-05
-0.000436049
-0.000711327
-0.000785759
-0.000717657
-0.000506844
-7.47488e-05
0.00017155
0.00102572
0.00149937
0.00176736
0.00175137
0.00152975
0.00118195
0.000784476
0.000416195
2.31645e-05
-0.000327775
-0.00060892
-0.000714724
-0.000667689
-0.000475646
-7.17605e-05
0.000165042
0.00100508
0.00148103
0.00175588
0.00175878
0.00155788
0.00123969
0.000864384
0.000489766
0.000101851
-0.000237211
-0.000514174
-0.00064005
-0.000600486
-0.000448249
-6.65049e-05
0.00015785
0.00100475
0.001503
0.0017974
0.00182562
0.0016392
0.00133227
0.000959152
0.000560658
0.000166376
-0.000169117
-0.000441104
-0.000562216
-0.000531303
-0.000429583
-6.11795e-05
0.000152688
0.00101731
0.00154772
0.00186936
0.00191591
0.00173948
0.0014385
0.00105284
0.000622646
0.000228072
-8.19684e-05
-0.000349118
-0.000486124
-0.000512382
-0.000393913
-5.39213e-05
0.000149793
0.00102283
0.00157904
0.00192411
0.0019946
0.00183214
0.00150602
0.00108333
0.00066029
0.000274327
-4.69536e-06
-0.000249703
-0.000390342
-0.000437538
-0.000342169
-4.12203e-05
0.000147794
0.00100871
0.00157008
0.00193814
0.00205396
0.00194215
0.00166321
0.00126379
0.000803257
0.000406281
0.000131329
-0.000146724
-0.00032006
-0.000367337
-0.00029151
-2.84042e-05
0.000144834
0.000982142
0.00155151
0.0019586
0.00212244
0.00208318
0.0018829
0.00151877
0.00105627
0.000614051
0.000273025
-4.36748e-05
-0.000225648
-0.00030702
-0.000247547
-1.65686e-05
0.000143
0.000967451
0.00154446
0.00199595
0.00224892
0.00226408
0.00213959
0.00179223
0.00131939
0.000835501
0.000434591
6.198e-05
-0.000122901
-0.000245003
-0.000214073
-2.37829e-06
0.000143595
0.000977849
0.00158261
0.00209801
0.00241035
0.00246296
0.00234362
0.00199709
0.00152274
0.00102574
0.000605669
0.000195655
-4.81228e-05
-0.000195547
-0.000185187
1.08154e-05
0.000140272
0.000976347
0.00162527
0.00219031
0.00252986
0.00260242
0.00235555
0.00200795
0.00154038
0.00105856
0.000653708
0.000311931
0.000137445
-6.28429e-05
-0.000114921
2.46119e-05
0.000137035
0.000958424
0.00161765
0.00219289
0.00254026
0.00262715
0.00253324
0.00224481
0.00181463
0.00135532
0.000954704
0.000571906
0.00038786
0.000120549
-1.92623e-05
4.52471e-05
0.000136484
0.000947491
0.00163629
0.00227878
0.00269508
0.0028523
0.00285095
0.0026332
0.0022471
0.00178877
0.00134397
0.000874549
0.000627302
0.000294079
9.14786e-05
7.18813e-05
0.000149926
0.00101524
0.00174487
0.00246474
0.00294636
0.00319868
0.00325239
0.00308225
0.00273858
0.00225952
0.0017108
0.00113152
0.000799438
0.000412988
0.000206668
8.82427e-05
0.000171954
0.0011649
0.0019145
0.00269101
0.00319147
0.00351951
0.00362628
0.00343612
0.0030906
0.00257749
0.00193626
0.00131662
0.00091829
0.000496007
0.000300752
0.000103057
0.000178089
0.00125571
0.00221885
0.00278434
0.00328339
0.0035934
0.00366616
0.00345255
0.00310191
0.00257879
0.0019548
0.001412
0.0010201
0.000604231
0.000365908
0.000111525
0.000225826
0.00143925
0.00248693
0.00319441
0.00381456
0.00412673
0.00411287
0.00377473
0.00332838
0.00274654
0.00212849
0.00159152
0.00124505
0.000805081
0.000448166
0.00011688
0.000319569
0.00175022
0.00251027
0.00375094
0.00450927
0.00470063
0.00451882
0.00410324
0.00358513
0.00299353
0.00236258
0.00185677
0.00153502
0.00103472
0.00057496
0.000127298
0.000419046
0.00214811
0.0030581
0.00413961
0.00460188
0.00479874
0.00459674
0.0041802
0.0036822
0.00319703
0.00273586
0.00220482
0.00175848
0.00117385
0.000693528
0.000142995
0.000473542
0.00252035
0.00400732
0.00520018
0.00553371
0.00567753
0.00534532
0.00482061
0.00422632
0.00365472
0.00311157
0.00243497
0.0018234
0.0011723
0.000729126
0.000151175
0.000485459
0.00263049
0.00466631
0.00626493
0.00672761
0.00682974
0.00639107
0.00572278
0.00495362
0.0041496
0.00336354
0.00249363
0.00178749
0.00109949
0.000665698
0.000141207
0.0006021
0.00301336
0.00480049
0.00633359
0.00754897
0.00760889
0.00713683
0.00638528
0.00554034
0.00451494
0.0034486
0.00242341
0.00164738
0.00095279
0.000551099
0.000115349
0.000778392
0.00383708
0.0059873
0.00749103
0.00774429
0.00761408
0.00712093
0.00639522
0.00559651
0.00463881
0.00361592
0.00253381
0.00166764
0.000903849
0.000465958
8.63066e-05
0.00094264
0.00466083
0.00744975
0.00925673
0.00929272
0.00887816
0.0079612
0.0070425
0.0063609
0.00505263
0.00364485
0.00228602
0.00135106
0.000627861
0.000359989
7.27571e-05
0.000986651
0.0048155
0.00768827
0.0101015
0.0116945
0.0110624
0.00942381
0.00802114
0.00736386
0.00552225
0.00366833
0.00211585
0.00108065
0.000380123
0.000181183
2.73712e-05
0.00128122
0.0061942
0.00992913
0.0126424
0.0139189
0.0129416
0.0108314
0.0090158
0.00805405
0.00578854
0.00350007
0.00164452
0.000468111
-0.000120958
-0.000146749
-3.63787e-05
0.00156399
0.00742008
0.0119998
0.0150122
0.0141041
0.0129758
0.0110044
0.00915624
0.0080114
0.00578708
0.00352053
0.00163318
0.00037806
-0.000194234
-0.000215882
-5.23181e-05
0.00158415
0.00755666
0.0122337
0.0154897
0.0166113
0.0154878
0.013256
0.0107553
0.00836817
0.00565164
0.00298058
0.000711357
-0.000793507
-0.00115071
-0.000823315
-0.000174054
0.00192819
0.00914982
0.0148485
0.018945
0.020483
0.0191225
0.0160792
0.0126916
0.00910674
0.00563197
0.00243673
-9.3157e-05
-0.00159712
-0.00208304
-0.00159793
-0.000351843
0.00231875
0.0111875
0.0182574
0.0230946
0.024353
0.0222495
0.0183475
0.0141427
0.00967465
0.00531022
0.00131188
-0.00170173
-0.00345798
-0.00366938
-0.00256119
-0.000556076
0.00241142
0.0115753
0.0187445
0.0237325
0.0249123
0.0224232
0.0184286
0.0141815
0.00967971
0.00507295
0.000790503
-0.00247255
-0.00427825
-0.00428336
-0.00292093
-0.000606313
0.00305177
0.014727
0.0235982
0.0296253
0.0303954
0.0261336
0.020919
0.0157377
0.0102177
0.00468879
-0.000364911
-0.00402104
-0.00602926
-0.00574818
-0.00385525
-0.000826426
0.00374693
0.0182947