# vtk DataFile Version 3.0
Grid data
ASCII
DATASET STRUCTURED_POINTS
DIMENSIONS 20 200 1
ORIGIN 0 0 0
SPACING 0.0125 0.005 1
POINT_DATA 4000
SCALARS rho double
LOOKUP_TABLE default
0.983721
0.983715
0.983702
0.983689
0.983677
0.983669
0.983662
0.983659
0.983656
0.983655
0.983655
0.983656
0.983659
0.983663
0.983669
0.983678
0.98369
0.983703
0.983715
0.983719
0.982446
0.982435
0.982412
0.982387
0.982365
0.98235
0.982342
0.982338
0.982337
0.982337
0.982337
0.982337
0.982337
0.982341
0.98235
0.982366
0.982389
0.982414
0.982437
0.982447
0.982355
0.982341
0.982314
0.982288
0.982266
0.982253
0.982249
0.98225
0.982252
0.982254
0.982254
0.982251
0.982248
0.982247
0.982252
0.982266
0.98229
0.982318
0.982346
0.98236
0.98295
0.982935
0.982907
0.982879
0.982857
0.982845
0.982841
0.982843
0.982846
0.982848
0.982848
0.982845
0.982841
0.982839
0.982843
0.982857
0.982882
0.982912
0.982943
0.982958
0.983741
0.983724
0.983692
0.983659
0.983631
0.983612
0.983603
0.9836
0.983599
0.9836
0.983599
0.983597
0.983596
0.983599
0.98361
0.983631
0.983663
0.983699
0.983733
0.983751
0.984455
0.984435
0.984398
0.984355
0.984314
0.984282
0.984259
0.984246
0.984239
0.984236
0.984235
0.984236
0.984242
0.984255
0.984279
0.984313
0.984358
0.984405
0.984445
0.984466
0.984919
0.984896
0.98485
0.984794
0.984735
0.984685
0.984645
0.984619
0.984604
0.984597
0.984596
0.984602
0.984616
0.984641
0.984682
0.984735
0.984797
0.984857
0.984905
0.984929
0.985088
0.985062
0.985009
0.984939
0.984864
0.984796
0.984742
0.984706
0.984685
0.984676
0.984675
0.984683
0.984703
0.984739
0.984794
0.984864
0.984942
0.985014
0.985069
0.985096
0.985017
0.984988
0.984929
0.98485
0.984763
0.984684
0.984622
0.984581
0.984558
0.984549
0.984548
0.984557
0.984579
0.98462
0.984683
0.984763
0.984852
0.984933
0.984993
0.985023
0.984806
0.984775
0.984713
0.984629
0.984537
0.984453
0.984388
0.984347
0.984326
0.984318
0.984318
0.984325
0.984346
0.984387
0.984452
0.984537
0.984631
0.984716
0.984779
0.98481
0.984545
0.984514
0.98445
0.984365
0.984271
0.984186
0.984123
0.984085
0.984066
0.98406
0.98406
0.984066
0.984084
0.984122
0.984186
0.984271
0.984366
0.984453
0.984517
0.984548
0.984294
0.984263
0.9842
0.984114
0.98402
0.983936
0.983874
0.983839
0.983824
0.98382
0.98382
0.983823
0.983838
0.983874
0.983936
0.98402
0.984115
0.984202
0.984266
0.984297
0.984076
0.984045
0.983982
0.983895
0.9838
0.983716
0.983655
0.983622
0.98361
0.983608
0.983608
0.98361
0.983622
0.983655
0.983716
0.983801
0.983897
0.983985
0.984048
0.98408
0.983888
0.983857
0.983792
0.983703
0.983606
0.98352
0.983459
0.983428
0.983419
0.983419
0.983419
0.983418
0.983428
0.983459
0.98352
0.983606
0.983705
0.983795
0.98386
0.983892
0.983713
0.983679
0.983612
0.98352
0.983419
0.983332
0.983272
0.983243
0.983236
0.983238
0.983237
0.983236
0.983242
0.983271
0.983332
0.98342
0.983521
0.983615
0.983682
0.983716
0.983533
0.983498
0.983428
0.983331
0.983227
0.983139
0.98308
0.983054
0.98305
0.983053
0.983053
0.98305
0.983054
0.98308
0.983139
0.983228
0.983332
0.98343
0.983501
0.983536
0.983344
0.983306
0.983231
0.98313
0.983025
0.982937
0.98288
0.982856
0.982855
0.982859
0.982859
0.982854
0.982856
0.98288
0.982937
0.983025
0.983132
0.983233
0.983308
0.983346
0.983144
0.983104
0.983025
0.98292
0.982813
0.982726
0.982671
0.982649
0.982648
0.982652
0.982652
0.982647
0.982649
0.982671
0.982726
0.982814
0.982921
0.983026
0.983105
0.983146
0.98294
0.982897
0.982814
0.982706
0.982598
0.98251
0.982455
0.982432
0.98243
0.982433
0.982433
0.98243
0.982433
0.982456
0.982511
0.982598
0.982707
0.982815
0.982898
0.982942
0.982737
0.982691
0.982604
0.982493
0.982382
0.982294
0.982237
0.98221
0.982203
0.982204
0.982204
0.982203
0.98221
0.982237
0.982294
0.982383
0.982494
0.982605
0.982692
0.982739
0.982536
0.982487
0.982397
0.982283
0.982169
0.982078
0.982016
0.981983
0.98197
0.981966
0.981966
0.98197
0.981983
0.982016
0.982078
0.98217
0.982283
0.982398
0.982488
0.982538
0.982336
0.982285
0.982192
0.982074
0.981958
0.981861
0.981793
0.981752
0.98173
0.981721
0.981721
0.98173
0.981752
0.981794
0.981862
0.981958
0.982075
0.982193
0.982286
0.982337
0.982131
0.982079
0.981985
0.981865
0.981745
0.981643
0.981567
0.981515
0.981485
0.98147
0.98147
0.981485
0.981516
0.981567
0.981643
0.981746
0.981866
0.981986
0.98208
0.982133
0.98192
0.981867
0.981774
0.981652
0.981528
0.98142
0.981335
0.981273
0.981234
0.981214
0.981214
0.981234
0.981274
0.981335
0.98142
0.981529
0.981652
0.981774
0.981868
0.981921
0.981699
0.981647
0.981554
0.981432
0.981305
0.98119
0.981096
0.981026
0.980978
0.980954
0.980954
0.980978
0.981026
0.981097
0.981191
0.981305
0.981432
0.981555
0.981648
0.9817
0.98147
0.981418
0.981328
0.981205
0.981075
0.980954
0.980852
0.980773
0.980719
0.980691
0.980692
0.98072
0.980774
0.980853
0.980954
0.981075
0.981205
0.981329
0.981419
0.981471
0.981234
0.981184
0.981096
0.980972
0.980839
0.980712
0.980603
0.980518
0.980459
0.980429
0.98043
0.98046
0.980518
0.980604
0.980713
0.98084
0.980973
0.981096
0.981184
0.981235
0.980998
0.980948
0.980862
0.980738
0.980601
0.980467
0.980352
0.980262
0.980201
0.98017
0.98017
0.980201
0.980263
0.980353
0.980468
0.980602
0.980738
0.980863
0.980949
0.980999
0.980765
0.980716
0.980631
0.980505
0.980364
0.980224
0.980103
0.980009
0.979946
0.979915
0.979915
0.979946
0.980009
0.980104
0.980225
0.980364
0.980506
0.980632
0.980716
0.980766
0.980542
0.980492
0.980407
0.980278
0.980132
0.979985
0.979857
0.97976
0.979695
0.979664
0.979664
0.979696
0.97976
0.979858
0.979985
0.980132
0.980279
0.980408
0.980493
0.980543
0.980331
0.98028
0.980194
0.98006
0.979907
0.979752
0.979618
0.979516
0.97945
0.979418
0.979419
0.979451
0.979517
0.979619
0.979753
0.979908
0.980061
0.980195
0.98028
0.980332
0.98013
0.980077
0.97999
0.979851
0.979691
0.979528
0.979386
0.979278
0.979208
0.979176
0.979176
0.979209
0.979278
0.979386
0.979528
0.979692
0.979852
0.979991
0.980078
0.98013
0.979933
0.979878
0.97979
0.979647
0.979481
0.979309
0.979158
0.979042
0.978968
0.978933
0.978933
0.978969
0.979043
0.979159
0.979309
0.979482
0.979648
0.979791
0.979879
0.979934
0.979731
0.979676
0.979588
0.979442
0.97927
0.97909
0.97893
0.978806
0.978726
0.978687
0.978687
0.978726
0.978807
0.978931
0.979091
0.979271
0.979443
0.979589
0.979677
0.979732
0.979517
0.979461
0.979373
0.979225
0.97905
0.978864
0.978696
0.978564
0.978475
0.978432
0.978432
0.978476
0.978564
0.978697
0.978865
0.979051
0.979226
0.979374
0.979462
0.979518
0.97928
0.979223
0.979137
0.978989
0.978812
0.978621
0.978447
0.978307
0.978212
0.978165
0.978165
0.978212
0.978307
0.978448
0.978622
0.978813
0.97899
0.979138
0.979224
0.979281
0.979008
0.978951
0.978869
0.978722
0.978546
0.978353
0.978175
0.978029
0.977928
0.977878
0.977878
0.977929
0.978029
0.978175
0.978353
0.978547
0.978723
0.97887
0.978952
0.979009
0.978682
0.978626
0.978551
0.978411
0.97824
0.978049
0.97787
0.977721
0.977618
0.977566
0.977566
0.977618
0.977721
0.97787
0.97805
0.978241
0.978411
0.978552
0.978626
0.978682
0.978278
0.978225
0.978163
0.978037
0.977881
0.977699
0.977526
0.977378
0.977274
0.977221
0.977221
0.977274
0.977378
0.977526
0.9777
0.977881
0.978037
0.978164
0.978226
0.978279
0.977791
0.977743
0.977698
0.977591
0.977456
0.977293
0.977133
0.976993
0.976891
0.976837
0.976837
0.976891
0.976993
0.977134
0.977294
0.977456
0.977591
0.977699
0.977744
0.977792
0.977264
0.977218
0.977184
0.97709
0.976973
0.976829
0.976687
0.976559
0.976461
0.976408
0.976408
0.976461
0.976559
0.976687
0.976829
0.976973
0.97709
0.977185
0.977218
0.977264
0.976814
0.976758
0.976715
0.976606
0.976479
0.976331
0.976194
0.976073
0.975981
0.975928
0.975928
0.97598
0.976073
0.976194
0.976331
0.976479
0.976606
0.976716
0.976759
0.976814
0.976656
0.976568
0.976466
0.976279
0.976077
0.975867
0.975688
0.975546
0.975448
0.975395
0.975395
0.975448
0.975546
0.975688
0.975867
0.976077
0.976279
0.976467
0.976569
0.976657
0.977167
0.976995
0.976723
0.976331
0.975937
0.975559
0.975247
0.975018
0.974876
0.974809
0.974808
0.974876
0.975017
0.975247
0.975559
0.975937
0.976333
0.976725
0.976997
0.977169
0.97863
0.978349
0.977837
0.977091
0.976309
0.975587
0.975
0.974567
0.974303
0.974183
0.974183
0.974302
0.974567
0.975
0.975588
0.97631
0.977094
0.977841
0.978353
0.978634
0.980777
0.980402
0.979717
0.978661
0.977428
0.976184
0.975121
0.97432
0.973806
0.973563
0.973563
0.973806
0.97432
0.975122
0.976186
0.977431
0.978665
0.979722
0.980408
0.980782
0.983249
0.982788
0.982005
0.980758
0.979199
0.977456
0.975795
0.974437
0.97351
0.973044
0.973044
0.97351
0.974438
0.975797
0.97746
0.979204
0.980763
0.982011
0.982794
0.983256
0.985852
0.985306
0.984465
0.983093
0.981329
0.979242
0.977054
0.975061
0.97357
0.97278
0.972781
0.973572
0.975063
0.977058
0.979247
0.981335
0.983099
0.984472
0.985313
0.985859
0.98834
0.987732
0.986922
0.985505
0.983604
0.981287
0.978739
0.976213
0.974141
0.972969
0.97297
0.974144
0.976218
0.978744
0.981292
0.98361
0.985511
0.986928
0.987739
0.988347
0.990222
0.989614
0.988978
0.987698
0.985831
0.983394
0.980633
0.977793
0.975328
0.973847
0.973848
0.975332
0.977798
0.980639
0.983399
0.985836
0.987703
0.988983
0.989618
0.990227
0.991055
0.990503
0.990094
0.989085
0.987565
0.985286
0.982531
0.979642
0.977123
0.97559
0.975591
0.977127
0.979647
0.982535
0.98529
0.987568
0.989087
0.990095
0.990504
0.991056
0.990963
0.990441
0.990151
0.989328
0.98825
0.986476
0.984145
0.98158
0.979375
0.978105
0.978106
0.979378
0.981583
0.984147
0.986477
0.988249
0.989327
0.990149
0.990438
0.990961
0.990405
0.989853
0.989608
0.988894
0.988018
0.986671
0.985122
0.983357
0.981862
0.981111
0.981111
0.981863
0.983358
0.985121
0.98667
0.988016
0.988891
0.989604
0.989849
0.990401
0.989752
0.989126
0.988879
0.988209
0.987368
0.986267
0.985403
0.984712
0.984324
0.984256
0.984255
0.984322
0.984709
0.9854
0.986264
0.987365
0.988206
0.988875
0.989122
0.989749
0.989356
0.988622
0.988305
0.98757
0.98665
0.985681
0.98533
0.985627
0.986462
0.987147
0.987145
0.986458
0.985622
0.985325
0.985678
0.986647
0.987567
0.988303
0.98862
0.989353
0.989464
0.988602
0.988152
0.987229
0.986139
0.985243
0.985266
0.986312
0.988064
0.989374
0.989371
0.988058
0.986306
0.985262
0.98524
0.986137
0.987228
0.988152
0.988601
0.989464
0.99003
0.989022
0.988424
0.987289
0.986012
0.985172
0.985489
0.986958
0.989109
0.990614
0.990612
0.989105
0.986952
0.985485
0.98517
0.986011
0.987289
0.988424
0.989023
0.990031
0.990897
0.989746
0.989016
0.987704
0.986299
0.985546
0.986083
0.987641
0.989674
0.99093
0.990929
0.989671
0.987637
0.986079
0.985543
0.986297
0.987704
0.989017
0.989747
0.990898
0.991966
0.990687
0.98986
0.988414
0.986953
0.986314
0.986942
0.988308
0.989843
0.990613
0.990613
0.989841
0.988305
0.986938
0.98631
0.986951
0.988413
0.98986
0.990687
0.991967
0.993219
0.99182
0.990921
0.989381
0.987925
0.987389
0.987934
0.988882
0.989706
0.989929
0.989929
0.989705
0.98888
0.98793
0.987385
0.987923
0.98938
0.990921
0.99182
0.993219
0.994673
0.993144
0.99217
0.990565
0.989161
0.988678
0.988986
0.989339
0.989348
0.989034
0.989034
0.989349
0.989338
0.988983
0.988674
0.989159
0.990564
0.99217
0.993144
0.994672
0.996327
0.994654
0.993594
0.991953
0.990603
0.990075
0.990039
0.989657
0.988835
0.988009
0.988009
0.988836
0.989657
0.990037
0.990072
0.9906
0.991952
0.993593
0.994653
0.996326
0.998121
0.996294
0.99517
0.99355
0.992219
0.991479
0.990967
0.989807
0.988205
0.98689
0.986891
0.988207
0.989807
0.990967
0.991477
0.992216
0.993549
0.995169
0.996294
0.99812
1.00001
0.998034
0.996887
0.995367
0.994012
0.992833
0.991637
0.989742
0.987464
0.985707
0.985708
0.987466
0.989744
0.991638
0.992831
0.99401
0.995366
0.996887
0.998034
1.00001
1.00229
1.00012
0.998902
0.997432
0.995964
0.994122
0.992018
0.989413
0.986603
0.984525
0.984525
0.986604
0.989414
0.992019
0.994121
0.995961
0.99743
0.998901
1.00013
1.00229
1.00589
1.00344
1.00186
1.00003
0.998063
0.995333
0.992163
0.988815
0.985626
0.983414
0.983414
0.985627
0.988817
0.992163
0.995332
0.99806
1.00002
1.00186
1.00344
1.00589
1.0132
1.01019
1.0074
1.00399
1.00056
0.996474
0.992114
0.988009
0.984552
0.982381
0.982381
0.984552
0.98801
0.992114
0.996473
1.00055
1.00399
1.0074
1.01019
1.0132
1.03006
1.02594
1.01982
1.01181
1.00442
0.997753
0.991924
0.987069
0.983415
0.981361
0.98136
0.983414
0.987069
0.991924
0.997752
1.00441
1.01181
1.01982
1.02594
1.03006
1.07115
1.06476
1.05029
1.02979
1.012
0.999887
0.991818
0.98606
0.982226
0.980262
0.980261
0.982224
0.986058
0.991818
0.999887
1.01199
1.02979
1.05029
1.06476
1.07116
1.17695
1.16525
1.12868
1.0739
1.02924
1.00447
0.992259
0.98508
0.980943
0.979003
0.979002
0.98094
0.985077
0.992258
1.00447
1.02924
1.0739
1.12868
1.16525
1.17696
1.41911
1.39952
1.32477
1.18747
1.07084
1.01561
0.994216
0.98439
0.979512
0.977509
0.977508
0.979509
0.984387
0.994215
1.01561
1.07084
1.18747
1.32478
1.39953
1.41913
1.7682
1.74426
1.64737
1.42206
1.17225
1.04254
0.999953
0.984419
0.977973
0.975693
0.975692
0.97797
0.984417
0.999952
1.04254
1.17226
1.42207
1.64738
1.74427
1.76821
2.08281
2.05988
1.97339
1.73251
1.36884
1.10524
1.0136
0.986032
0.976507
0.97344
0.97344
0.976506
0.98603
1.0136
1.10525
1.36885
1.73252
1.9734
2.05989
2.08282
2.24003
2.22212
2.17033
2.00811
1.63384
1.22863
1.04225
0.991002
0.975418
0.97063
0.97063
0.975418
0.991001
1.04225
1.22863
1.63385
2.00811
2.17033
2.22213
2.24004
2.28385
2.26922
2.24036
2.16212
1.89262
1.41585
1.09945
1.00201
0.975236
0.967229
0.96723
0.975237
1.00201
1.09945
1.41585
1.89262
2.16211
2.24036
2.26922
2.28385
2.28081
2.26858
2.25466
2.21975
2.07097
1.63701
1.19607
1.02206
0.976699
0.963319
0.963319
0.9767
1.02206
1.19607
1.63701
2.07096
2.21974
2.25466
2.26858
2.28081
2.25218
2.24251
2.24157
2.22991
2.15572
1.8365
1.32537
1.05623
0.980952
0.959085
0.959086
0.980954
1.05623
1.32536
1.83649
2.15572
2.2299
2.24157
2.24251
2.25217
2.2122
2.20456
2.2123
2.21329
2.17794
1.96703
1.47008
1.10886
0.988543
0.954907
0.954907
0.988544
1.10886
1.47008
1.96703
2.17793
2.21328
2.21229
2.20455
2.2122
2.17034
2.16271
2.17351
2.18063
2.16459
2.0279
1.60829
1.1789
1.00023
0.951332
0.951333
1.00023
1.1789
1.60829
2.02789
2.16458
2.18062
2.17351
2.16271
2.17033
2.13259
2.12429
2.13277
2.13818
2.13126
2.04848
1.72306
1.25942
1.01795
0.948421
0.948421
1.01795
1.25942
1.72306
2.04847
2.13125
2.13817
2.13276
2.12429
2.13259
2.10051
2.09101
2.09413
2.09356
2.09277
2.04711
1.80663
1.34352
1.04263
0.944994
0.944993
1.04262
1.34351
1.80662
2.04711
2.09277
2.09355
2.09413
2.09101
2.10051
2.07247
2.06035
2.05862
2.05219
2.05689
2.03144
1.85546
1.4248
1.07396
0.93961
0.939609
1.07395
1.42479
1.85545
2.03144
2.05689
2.05219
2.05862
2.06035
2.07247
2.04661
2.03138
2.02421
2.01218
2.01999
2.00689
1.87888
1.49541
1.10899
0.933067
0.933066
1.10899
1.4954
1.87888
2.00689
2.01999
2.01218
2.02421
2.03138
2.0466
2.02294
2.00531
1.98858
1.96727
1.97971
1.97753
1.88489
1.54905
1.143
0.926777
0.926776
1.14299
1.54904
1.8849
1.97754
1.97971
1.96726
1.98858
2.00531
2.02293
2.00149
1.98227
1.95157
1.91871
1.93612
1.94066
1.87415
1.58544
1.1727
0.921006
0.921006
1.1727
1.58544
1.87416
1.94067
1.93612
1.91871
1.95156
1.98226
2.00148
1.98157
1.9604
1.91359
1.87029
1.88738
1.89525
1.84914
1.6073
1.19641
0.9154
0.9154
1.19641
1.6073
1.84915
1.89526
1.88738
1.87029
1.91359
1.96039
1.98156
1.9627
1.93801
1.87596
1.8223
1.83216
1.84456
1.81506
1.61308
1.21241
0.909797
0.909798
1.21241
1.61308
1.81507
1.84456
1.83216
1.8223
1.87596
1.93801
1.9627
1.94425
1.91521
1.83904
1.77025
1.77409
1.79299
1.77348
1.60429
1.22039
0.904339
0.904339
1.2204
1.6043
1.77349
1.79299
1.77409
1.77025
1.83904
1.91521
1.94424
1.92522
1.89049
1.79875
1.717
1.71694
1.73937
1.72852
1.58732
1.22226
0.899184
0.899184
1.22226
1.58732
1.72852
1.73938
1.71694
1.717
1.79875
1.89049
1.92522
1.9051
1.86337
1.75513
1.66461
1.66205
1.6864
1.68411
1.56619
1.22012
0.894647
0.894647
1.22012
1.56619
1.68412
1.6864
1.66205
1.66461
1.75513
1.86337
1.9051
1.88445
1.83495
1.70984
1.6146
1.61133
1.63762
1.64236
1.54266
1.21516
0.891087
0.891087
1.21516
1.54266
1.64236
1.63763
1.61133
1.6146
1.70984
1.83494
1.88445
1.86417
1.80686
1.66495
1.56871
1.56647
1.59413
1.60375
1.51766
1.20805
0.888746
0.888746
1.20805
1.51766
1.60375
1.59414
1.56647
1.56871
1.66495
1.80686
1.86417
1.84458
1.78003
1.62222
1.52795
1.52788
1.55552
1.56796
1.49182
1.19924
0.887655
0.887655
1.19924
1.49182
1.56796
1.55552
1.52788
1.52795
1.62222
1.78003
1.84458
1.82542
1.75448
1.58292
1.49215
1.49481
1.52151
1.53499
1.46579
1.18911
0.887535
0.887534
1.18911
1.46579
1.53499
1.52152
1.49481
1.49215
1.58292
1.75449
1.82542
1.80686
1.73024
1.54748
1.46117
1.4665
1.49186
1.50498
1.44027
1.17804
0.887893
0.887892
1.17804
1.44027
1.50498
1.49187
1.46651
1.46117
1.54748
1.73024
1.80686
1.78989
1.7081
1.51639
1.43453
1.44206
1.46624
1.47907
1.41628
1.16617
0.888297
0.888295
1.16617
1.41628
1.47907
1.46624
1.44206
1.43453
1.5164
1.7081
1.78989
1.7752
1.68853
1.48984
1.4111
1.42098
1.44373
1.45601
1.39412
1.15407
0.8886
0.888598
1.15406
1.39412
1.45601
1.44373
1.42099
1.4111
1.48984
1.68852
1.7752
1.76295
1.67156
1.46685
1.39043
1.40213
1.42338
1.4368
1.3749
1.14237
0.888981
0.88898
1.14237
1.3749
1.4368
1.42338
1.40213
1.39043
1.46685
1.67156
1.76295
1.75287
1.65754
1.44707
1.37194
1.38503
1.40529
1.41833
1.35774
1.1324
0.889706
0.889705
1.1324
1.35775
1.41833
1.40529
1.38503
1.37194
1.44707
1.65754
1.75286
1.7466
1.64649
1.43055
1.35538
1.36915
1.38926
1.40208
1.34233
1.12385
0.890901
0.890901
1.12385
1.34233
1.40208
1.38927
1.36915
1.35538
1.43055
1.64649
1.7466
1.74418
1.63997
1.41681
1.34044
1.35422
1.37466
1.38664
1.32781
1.11623
0.892488
0.892488
1.11623
1.32781
1.38664
1.37466
1.35422
1.34043
1.41681
1.63997
1.74419
1.74477
1.63667
1.40612
1.32672
1.33992
1.36073
1.37205
1.31376
1.10895
0.894206
0.894206
1.10895
1.31376
1.37205
1.36074
1.33992
1.32671
1.40612
1.63667
1.74478
1.74866
1.63654
1.39762
1.31397
1.32603
1.34708
1.35766
1.2999
1.10177
0.895893
0.895893
1.10177
1.2999
1.35766
1.34708
1.32603
1.31396
1.39761
1.63654
1.74867
1.75703
1.63991
1.39114
1.30201
1.31228
1.33352
1.3434
1.28626
1.0947
0.897495
0.897494
1.09469
1.28626
1.3434
1.33353
1.31227
1.302
1.39113
1.63991
1.75704
1.76924
1.64648
1.38623
1.29054
1.29845
1.31984
1.32916
1.27281
1.08771
0.898916
0.898915
1.08771
1.27281
1.32916
1.31984
1.29845
1.29053
1.38622
1.64648
1.76925
1.78275
1.65456
1.38237
1.27941
1.28447
1.30583
1.31483
1.25948
1.08069
0.899927
0.899926
1.08069
1.25948
1.31483
1.30583
1.28446
1.2794
1.38237
1.65455
1.78274
1.79493
1.66225
1.3791
1.26856
1.27044
1.29143
1.30022
1.24612
1.07354
0.900369
0.900368
1.07354
1.24612
1.30022
1.29143
1.27043
1.26856
1.3791
1.66224
1.79492
1.80417
1.66839
1.37614
1.25811
1.25661
1.27682
1.28527
1.23264
1.0663
0.900303
0.900302
1.0663
1.23264
1.28527
1.27682
1.2566
1.25811
1.37614
1.66837
1.80415
1.81167
1.67363
1.3734
1.24819
1.24323
1.2623
1.27004
1.21903
1.05911
0.899968
0.899968
1.05911
1.21903
1.27004
1.2623
1.24323
1.2482
1.3734
1.67361
1.81165
1.82013
1.67965
1.37095
1.23885
1.23049
1.24802
1.25465
1.20532
1.05205
0.899546
0.899546
1.05205
1.20533
1.25465
1.24802
1.2305
1.23886
1.37094
1.67963
1.82012
1.8305
1.68726
1.3689
1.23
1.21849
1.23399
1.23915
1.19155
1.04509
0.89902
0.899019
1.04509
1.19155
1.23915
1.234
1.2185
1.23001
1.3689
1.68724
1.83049
1.84185
1.69615
1.36729
1.22139
1.20714
1.22009
1.22349
1.17768
1.03814
0.898271
0.898271
1.03814
1.17768
1.22349
1.22009
1.20716
1.22139
1.36729
1.69614
1.84183
1.85301
1.70578
1.36619
1.21261
1.19602
1.20608
1.2076
1.16371
1.03115
0.897262
0.897262
1.03115
1.1637
1.2076
1.20609
1.19602
1.21262
1.36618
1.70576
1.85299
1.86358
1.71585
1.3658
1.20316
1.18418
1.19176
1.19153
1.14962
1.02415
0.896143
0.896143
1.02414
1.14962
1.19153
1.19176
1.18419
1.20317
1.3658
1.71584
1.86356
1.87383
1.72634
1.36648
1.19257
1.17057
1.17672
1.17548
1.13559
1.01717
0.895165
0.895164
1.01717
1.13558
1.17548
1.17673
1.17057
1.19258
1.36648
1.72633
1.87381
1.88412
1.73713
1.36856
1.18086
1.15439
1.16003
1.15926
1.12191
1.01032
0.894494
0.894493
1.01031
1.12191
1.15927
1.16004
1.1544
1.18086
1.36857
1.73713
1.88412
1.89474
1.748
1.37203
1.1688
1.13564
1.1406
1.14204
1.10876
1.0038
0.894102
0.894102
1.0038
1.10876
1.14204
1.1406
1.13564
1.1688
1.37203
1.74801
1.89475
1.90573
1.75871
1.37632
1.15741
1.1157
1.11884
1.12323
1.09586
0.997998
0.893854
0.893854
0.997997
1.09586
1.12324
1.11884
1.1157
1.15742
1.37633
1.75873
1.90575
1.91681
1.76904
1.38059
1.14721
1.09687
1.09729
1.10419
1.08248
0.992684
0.893641
0.89364
0.992683
1.08248
1.10419
1.09729
1.09687
1.14721
1.3806
1.76906
1.91684
1.92735
1.77873
1.38435
1.13802
1.08046
1.0785
1.08689
1.06827
0.986762
0.893379
0.893378
0.986762
1.06827
1.08689
1.0785
1.08046
1.13802
1.38437
1.77876
1.92739
1.93678
1.78762
1.3878
1.12925
1.06588
1.06239
1.07117
1.05412
0.97998
0.893023
0.893023
0.97998
1.05411
1.07117
1.06238
1.06588
1.12926
1.38782
1.78764
1.93681
1.945
1.79572
1.3913
1.1208
1.05177
1.04703
1.05596
1.04032
0.972742
0.892618
0.892618
0.972742
1.04031
1.05596
1.04703
1.05177
1.12081
1.39132
1.79574
1.94502
1.95251
1.80343
1.39498
1.11295
1.03761
1.03097
1.03965
1.02624
0.965593
0.892298
0.892298
0.965592
1.02624
1.03964
1.03097
1.03761
1.11296
1.395
1.80345
1.95253
1.96008
1.8114
1.39882
1.10584
1.02401
1.01446
1.02187
1.01134
0.958745
0.892148
0.892148
0.958744
1.01134
1.02187
1.01446
1.02401
1.10585
1.39885
1.81142
1.9601
1.96819
1.82017
1.40309
1.09914
1.01173
0.999404
1.00439
0.99598
0.951858
0.89204
0.89204
0.951856
0.995977
1.00439
0.999404
1.01173
1.09915
1.40311
1.8202
1.96821
1.97696
1.82996
1.40837
1.09257
1.00071
0.987032
0.988655
0.980864
0.944408
0.891661
0.89166
0.944405
0.980862
0.988655
0.987032
1.00071
1.09257
1.40839
1.82999
1.97699
1.98627
1.84072
1.41516
1.08629
0.989812
0.975532
0.974095
0.966375
0.936285
0.890744
0.890743
0.936283
0.966374
0.974095
0.975532
0.989814
1.08629
1.41518
1.84074
1.98629
1.99595
1.85227
1.42364
1.08047
0.97778
0.962314
0.959649
0.952563
0.927753
0.88919
0.889189
0.927752
0.952562
0.95965
0.962314
0.977782
1.08047
1.42366
1.85229
1.99596
2.00591
1.86448
1.43378
1.07531
0.964484
0.947259
0.944699
0.939142
0.919225
0.887086
0.887085
0.919224
0.939142
0.944699
0.947259
0.964485
1.07532
1.43379
1.86449
2.00591
2.01618
1.87728
1.44534
1.07142
0.951078
0.931327
0.929009
0.925693
0.911014
0.884656
0.884655
0.911013
0.925694
0.929009
0.931327
0.951078
1.07143
1.44535
1.87728
2.01617
2.02685
1.89076
1.45821
1.06909
0.938555
0.915585
0.913164
0.912381
0.90302
0.882086
0.882085
0.903021
0.912382
0.913164
0.915584
0.938556
1.06909
1.45821
1.89075
2.02683
2.03807
1.90511
1.47248
1.06817
0.927342
0.901147
0.898599
0.900048
0.894432
0.879031
0.879031
0.894433
0.900048
0.898599
0.901146
0.927343
1.06818
1.47248
1.90509
2.03805
2.04995
1.92048
1.48847
1.06859
0.917428
0.888477
0.885838
0.888293
0.885536
0.875241
0.875241
0.885537
0.888293
0.885838
0.888476
0.917429
1.06859
1.48847
1.92046
2.04993
2.06248
1.93689
1.50652
1.07056
0.908493
0.876932
0.87416
0.877043
0.876815
0.870861
0.870861
0.876816
0.877043
0.87416
0.876932
0.908494
1.07056
1.50652
1.93688
2.06246
2.07554
1.95419
1.52675
1.07452
0.900245
0.865744
0.863031
0.866558
0.868517
0.865971
0.865971
0.868518
0.866558
0.863032
0.865745
0.900247
1.07452
1.52675
1.95419
2.07553
2.0889
1.97211
1.54894
1.08091
0.892809
0.854525
0.851909
0.857102
0.860455
0.860174
0.860174
0.860456
0.857103
0.85191
0.854526
0.892811
1.08091
1.54894
1.97211
2.0889
2.10226
1.99033
1.57269
1.08995
0.88647
0.843185
0.840385
0.847099
0.852737
0.854252
0.854252
0.852738
0.8471
0.840387
0.843187
0.886472
1.08995
1.57269
1.99034
2.10228
2.11535
2.00861
1.59761
1.10157
0.881781
0.832207
0.828562
0.836359
0.844821
0.848304
0.848304
0.844822
0.836361
0.828564
0.832209
0.881782
1.10157
1.59761
2.00863
2.11537
2.12792
2.0268
1.62368
1.11554
0.879011
0.822274
0.816925
0.825182
0.836165
0.842037
0.842038
0.836166
0.825184
0.816927
0.822277
0.879013
1.11554
1.62368
2.02681
2.12795
2.13991
2.04486
1.65112
1.13181
0.877988
0.813729
0.805991
0.813972
0.826544
0.834867
0.834867
0.826546
0.813974
0.805994
0.813731
0.87799
1.13181
1.65113
2.04488
2.13993
2.15135
2.06287
1.68018
1.15067
0.878478
0.806442
0.795941
0.803084
0.816223
0.82643
0.826431
0.816225
0.803087
0.795944
0.806444
0.878481
1.15067
1.68019
2.06289
2.15138
2.16238
2.08091
1.71109
1.17266
0.880435
0.800133
0.786674
0.792642
0.8056
0.816813
0.816814
0.805602
0.792645
0.786677
0.800136
0.880438
1.17266
1.7111
2.08094
2.16241
2.17317
2.09904
1.744
1.1986
0.88399
0.794654
0.777948
0.782532
0.794946
0.806423
0.806424
0.794948
0.782534
0.777951
0.794657
0.883993
1.19861
1.74402
2.09906
2.1732
2.18388
2.11723
1.77896
1.22927
0.889437
0.790146
0.769747
0.772694
0.784209
0.795501
0.795502
0.78421
0.772696
0.76975
0.790149
0.889441
1.22928
1.77898
2.11725
2.18391
2.19464
2.13536
1.81587
1.2651
0.897631
0.786774
0.762347
0.763305
0.773324
0.783919
0.783919
0.773326
0.763308
0.76235
0.786777
0.897635
1.26511
1.81589
2.13539
2.19468
2.20537
2.1532
1.85463
1.30578
0.909631
0.784942
0.755958
0.754677
0.762236
0.771377
0.771377
0.762238
0.75468
0.755961
0.784946
0.909635
1.30579
1.85465
2.15324
2.20541
2.2157
2.17045
1.89545
1.35147
0.926358
0.784882
0.750711
0.746771
0.750998
0.758008
0.758008
0.751
0.746774
0.750714
0.784886
0.926363
1.35148
1.89548
2.17048
2.21574
2.22533
2.18683
1.93783
1.4027
0.948605
0.787057
0.746391
0.739112
0.740134
0.744798
0.744798
0.740136
0.739114
0.746393
0.78706
0.948612
1.40272
1.93785
2.18687
2.22536
2.23409
2.20207
1.98077
1.45938
0.976741
0.791605
0.742757
0.731769
0.730496
0.733088
0.733089
0.730498
0.731771
0.74276
0.791609
0.97675
1.4594
1.9808
2.2021
2.23411
2.24174
2.21599
2.0236
1.5209
1.01116
0.799202
0.740186
0.725139
0.722339
0.723126
0.723127
0.722341
0.725141
0.740189
0.799206
1.01117
1.52093
2.02363
2.21601
2.24176
2.24824
2.22909
2.06572
1.58683
1.05236
0.810764
0.739886
0.719816
0.714677
0.713867
0.713867
0.714679
0.719818
0.739889
0.81077
1.05238
1.58686
2.06574
2.22911
2.24825
2.25385
2.24193
2.10609
1.65698
1.10112
0.826639
0.742258
0.715829
0.707533
0.705268
0.705268
0.707534
0.715831
0.742261
0.826646
1.10114
1.65701
2.10611
2.24194
2.25386
2.259
2.25418
2.14371
1.73083
1.15896
0.846987
0.746956
0.713542
0.70194
0.698246
0.698247
0.701941
0.713544
0.74696
0.846995
1.15899
1.73086
2.14372
2.25418
2.259
2.26395
2.26514
2.17761
1.80687
1.22851
0.873264
0.754023
0.713433
0.698666
0.693606
0.693606
0.698667
0.713435
0.754027
0.873275
1.22853
1.80689
2.17762
2.26514
2.26395
2.26882
2.27453
2.2071
1.88266
1.31177
0.908757
0.7642
0.715569
0.697388
0.690971
0.690971
0.697389
0.715571
0.764205
0.90877
1.3118
1.88268
2.2071
2.27453
2.26881
2.27344
2.28251
2.23127
1.95566
1.40867
0.958326
0.779207
0.71994
0.697386
0.689361
0.689361
0.697387
0.719943
0.779213
0.958344
1.4087
1.95567
2.23127
2.28251
2.27344
2.27795
2.28907
2.24889
2.02346
1.51762
1.02711
0.801551
0.7268
0.698214
0.688022
0.688023
0.698216
0.726803
0.801559
1.02714
1.51765
2.02348
2.24889
2.28907
2.27796
2.28245
2.29442
2.26105
2.08191