# vtk DataFile Version 3.0
Grid data
ASCII
DATASET STRUCTURED_POINTS
DIMENSIONS 20 200 1
ORIGIN 0 0 0
SPACING 0.0125 0.005 1
POINT_DATA 4000
SCALARS rho double
LOOKUP_TABLE default
0.982622
0.98261
0.982587
0.982552
0.982511
0.982471
0.98244
0.982415
0.982392
0.982375
0.982375
0.982392
0.982415
0.98244
0.982471
0.98251
0.982552
0.982587
0.98261
0.982621
0.981296
0.981285
0.981267
0.98124
0.981213
0.981198
0.981203
0.981214
0.981217
0.981214
0.981213
0.981217
0.981213
0.981202
0.981197
0.981212
0.98124
0.981268
0.981287
0.981299
0.981125
0.98112
0.981115
0.981114
0.981122
0.981144
0.981178
0.981213
0.981234
0.981241
0.981241
0.981233
0.981212
0.981177
0.981142
0.981121
0.981115
0.981118
0.981124
0.981131
0.981593
0.981588
0.981587
0.98159
0.981602
0.981619
0.981639
0.981654
0.981661
0.981661
0.981661
0.98166
0.981652
0.981636
0.981616
0.9816
0.981592
0.981591
0.981594
0.9816
0.982219
0.982214
0.982213
0.982214
0.982218
0.982222
0.982222
0.982218
0.982211
0.982206
0.982206
0.98221
0.982215
0.982219
0.982219
0.982217
0.982215
0.982218
0.982222
0.982228
0.982753
0.982746
0.982737
0.982724
0.982709
0.982691
0.982671
0.982651
0.982636
0.982629
0.982629
0.982635
0.982648
0.982667
0.982688
0.982708
0.982726
0.982742
0.982752
0.982761
0.983047
0.983035
0.983017
0.982986
0.982949
0.982911
0.982878
0.982853
0.982839
0.982834
0.982833
0.982838
0.982851
0.982874
0.982908
0.982948
0.982987
0.98302
0.983041
0.983053
0.983083
0.983068
0.983039
0.982993
0.98294
0.982888
0.982847
0.982821
0.982809
0.982805
0.982805
0.982808
0.982819
0.982845
0.982886
0.982938
0.982994
0.983042
0.983071
0.983087
0.982927
0.98291
0.982875
0.982821
0.982759
0.982702
0.982658
0.982631
0.982618
0.982615
0.982614
0.982617
0.982629
0.982656
0.9827
0.982758
0.982821
0.982877
0.982912
0.982929
0.982672
0.982653
0.982616
0.982557
0.982492
0.982431
0.982384
0.982353
0.982337
0.982332
0.982331
0.982336
0.982352
0.982382
0.98243
0.982491
0.982558
0.982616
0.982654
0.982673
0.982391
0.98237
0.982331
0.982269
0.9822
0.982135
0.982082
0.982045
0.982023
0.982013
0.982013
0.982022
0.982043
0.98208
0.982133
0.9822
0.982269
0.982331
0.982371
0.982392
0.982126
0.982102
0.98206
0.981994
0.981919
0.981846
0.981785
0.981738
0.981707
0.981691
0.981691
0.981706
0.981737
0.981783
0.981845
0.981918
0.981994
0.98206
0.982103
0.982127
0.981886
0.98186
0.981812
0.98174
0.981658
0.981578
0.981508
0.981453
0.981413
0.981391
0.981391
0.981412
0.981452
0.981507
0.981577
0.981658
0.98174
0.981813
0.98186
0.981887
0.981662
0.981631
0.981578
0.981501
0.981413
0.981328
0.981254
0.981194
0.98115
0.981127
0.981126
0.981149
0.981193
0.981253
0.981327
0.981413
0.9815
0.981579
0.981632
0.981663
0.981436
0.981402
0.981343
0.981261
0.98117
0.981084
0.98101
0.980951
0.980909
0.980887
0.980887
0.980909
0.980951
0.98101
0.981084
0.98117
0.98126
0.981344
0.981402
0.981437
0.981197
0.981159
0.981095
0.981008
0.980916
0.980831
0.980759
0.980703
0.980664
0.980645
0.980645
0.980665
0.980703
0.980759
0.980831
0.980916
0.981007
0.981095
0.981159
0.981198
0.980938
0.980895
0.980826
0.980735
0.980642
0.980557
0.980485
0.980428
0.980389
0.980368
0.980368
0.980389
0.980429
0.980485
0.980556
0.980642
0.980735
0.980826
0.980895
0.980938
0.980656
0.980609
0.980535
0.980439
0.980342
0.980253
0.980177
0.980115
0.980069
0.980044
0.980044
0.980069
0.980115
0.980177
0.980253
0.980342
0.980439
0.980535
0.980609
0.980656
0.980348
0.980298
0.980219
0.980118
0.980016
0.97992
0.979834
0.979761
0.979706
0.979675
0.979675
0.979706
0.979761
0.979834
0.979919
0.980016
0.980118
0.980219
0.980298
0.980348
0.980009
0.979958
0.979876
0.97977
0.979661
0.979555
0.979458
0.979372
0.979306
0.979269
0.979269
0.979306
0.979372
0.979458
0.979555
0.979661
0.97977
0.979876
0.979958
0.980009
0.979633
0.979583
0.979501
0.979392
0.979275
0.979158
0.979048
0.978949
0.978873
0.978831
0.978831
0.978873
0.978949
0.979048
0.979159
0.979275
0.979392
0.979501
0.979583
0.979633
0.979217
0.979169
0.979091
0.97898
0.978857
0.978728
0.978603
0.97849
0.978403
0.978355
0.978355
0.978403
0.978491
0.978604
0.978729
0.978857
0.978981
0.979091
0.979169
0.979217
0.978761
0.978719
0.978647
0.978538
0.978409
0.978268
0.978125
0.977995
0.977895
0.977841
0.977841
0.977896
0.977996
0.978126
0.978268
0.97841
0.978539
0.978647
0.978719
0.978761
0.978275
0.978239
0.978175
0.978072
0.977939
0.977784
0.977622
0.977472
0.977356
0.977293
0.977293
0.977357
0.977473
0.977623
0.977785
0.97794
0.978072
0.978176
0.978239
0.978275
0.977771
0.977741
0.977688
0.977591
0.977457
0.97729
0.97711
0.976937
0.976802
0.976728
0.976729
0.976803
0.976938
0.977111
0.977292
0.977458
0.977592
0.977688
0.977741
0.977771
0.977264
0.977241
0.977196
0.977106
0.976974
0.9768
0.976603
0.97641
0.976256
0.976171
0.976171
0.976257
0.976411
0.976604
0.976801
0.976975
0.977107
0.977196
0.977241
0.977264
0.976769
0.97675
0.976712
0.976629
0.976499
0.976321
0.976113
0.975904
0.975734
0.975639
0.97564
0.975735
0.975905
0.976115
0.976323
0.976501
0.97663
0.976713
0.97675
0.976769
0.976293
0.976278
0.976245
0.976167
0.97604
0.97586
0.975644
0.975424
0.975242
0.97514
0.975141
0.975243
0.975425
0.975646
0.975862
0.976042
0.976168
0.976246
0.976278
0.976293
0.97584
0.975828
0.975799
0.975725
0.9756
0.975418
0.975197
0.974967
0.974777
0.97467
0.974671
0.974778
0.974969
0.975199
0.97542
0.975602
0.975727
0.975801
0.975829
0.975841
0.975411
0.975403
0.975378
0.975307
0.975183
0.974998
0.974771
0.974533
0.974335
0.974223
0.974224
0.974336
0.974534
0.974772
0.975
0.975185
0.975309
0.975379
0.975404
0.975412
0.975008
0.975003
0.974983
0.974916
0.974792
0.974604
0.974369
0.974121
0.973915
0.973799
0.973799
0.973916
0.974123
0.974371
0.974606
0.974794
0.974918
0.974985
0.975005
0.97501
0.974636
0.974634
0.974619
0.974556
0.974433
0.97424
0.973997
0.97374
0.973526
0.973405
0.973405
0.973527
0.973742
0.973999
0.974242
0.974435
0.974557
0.974621
0.974635
0.974637
0.9743
0.974301
0.974292
0.974232
0.97411
0.973913
0.973663
0.973397
0.973176
0.973051
0.973051
0.973177
0.973399
0.973665
0.973915
0.974111
0.974234
0.974293
0.974303
0.974301
0.974008
0.974012
0.974007
0.973949
0.973827
0.973626
0.97337
0.973097
0.97287
0.972742
0.972743
0.972871
0.973099
0.973372
0.973628
0.973828
0.973951
0.974008
0.974014
0.97401
0.973767
0.973772
0.973768
0.973711
0.973586
0.973381
0.973119
0.972841
0.97261
0.972479
0.97248
0.972611
0.972842
0.97312
0.973383
0.973588
0.973713
0.97377
0.973774
0.973769
0.973574
0.97358
0.973575
0.973515
0.973386
0.973175
0.972906
0.972623
0.972388
0.972255
0.972255
0.972388
0.972624
0.972908
0.973176
0.973387
0.973517
0.973577
0.973582
0.973577
0.973427
0.97343
0.973423
0.973357
0.97322
0.973001
0.972725
0.972435
0.972194
0.972058
0.972059
0.972195
0.972435
0.972726
0.973002
0.973221
0.973358
0.973425
0.973433
0.973429
0.973314
0.973314
0.973301
0.973226
0.973079
0.97285
0.972563
0.972265
0.972018
0.971879
0.971879
0.972018
0.972265
0.972564
0.972851
0.973081
0.973228
0.973303
0.973317
0.973317
0.973225
0.97322
0.973199
0.973113
0.972954
0.97271
0.972411
0.972102
0.971847
0.971704
0.971704
0.971847
0.972102
0.972412
0.972711
0.972955
0.973115
0.973201
0.973222
0.973227
0.973146
0.973136
0.973106
0.973007
0.972832
0.972572
0.972258
0.971936
0.971672
0.971524
0.971524
0.971672
0.971936
0.972258
0.972573
0.972833
0.973009
0.973108
0.973138
0.973149
0.973068
0.973052
0.973013
0.972899
0.972706
0.972427
0.972094
0.971758
0.971485
0.971332
0.971332
0.971484
0.971757
0.972094
0.972427
0.972707
0.972901
0.973015
0.973055
0.973071
0.972982
0.972961
0.972913
0.972783
0.97257
0.972268
0.971915
0.971563
0.971279
0.971121
0.971121
0.971278
0.971561
0.971914
0.972268
0.972571
0.972784
0.972915
0.972963
0.972985
0.972884
0.972857
0.9728
0.972654
0.97242
0.972094
0.971718
0.971347
0.971052
0.970889
0.970888
0.971051
0.971346
0.971716
0.972093
0.97242
0.972655
0.972802
0.972859
0.972887
0.972773
0.972739
0.972673
0.972511
0.972255
0.971904
0.971504
0.971114
0.970806
0.970636
0.970636
0.970804
0.971112
0.971502
0.971903
0.972256
0.972512
0.972675
0.972742
0.972776
0.972649
0.972609
0.972535
0.972356
0.972079
0.971703
0.971278
0.970867
0.970545
0.970368
0.970368
0.970543
0.970865
0.971276
0.971702
0.972079
0.972357
0.972537
0.972612
0.972652
0.972519
0.972472
0.972389
0.972195
0.971897
0.971496
0.971047
0.970615
0.970277
0.970092
0.970092
0.970276
0.970613
0.971045
0.971495
0.971897
0.972196
0.972391
0.972474
0.972522
0.972391
0.972335
0.972243
0.972033
0.971716
0.971292
0.970819
0.970366
0.970012
0.969817
0.969817
0.97001
0.970364
0.970817
0.971291
0.971716
0.972034
0.972245
0.972338
0.972393
0.972272
0.972207
0.972106
0.97188
0.971544
0.971097
0.970601
0.970126
0.969754
0.96955
0.96955
0.969753
0.970124
0.970599
0.971096
0.971543
0.971881
0.972107
0.97221
0.972275
0.97217
0.972095
0.971982
0.97174
0.971384
0.970914
0.970395
0.969898
0.969509
0.969295
0.969295
0.969508
0.969897
0.970393
0.970913
0.971383
0.97174
0.971984
0.972097
0.972173
0.972089
0.972002
0.971877
0.971615
0.971238
0.970744
0.970201
0.969682
0.969275
0.969052
0.969051
0.969274
0.96968
0.970199
0.970743
0.971237
0.971616
0.971878
0.972004
0.972092
0.972031
0.97193
0.97179
0.971507
0.971105
0.970584
0.970013
0.969471
0.969048
0.968815
0.968815
0.969047
0.96947
0.970012
0.970582
0.971104
0.971507
0.971792
0.971931
0.972033
0.971992
0.971875
0.97172
0.971411
0.97098
0.970427
0.969826
0.969259
0.968819
0.968577
0.968577
0.968818
0.969258
0.969825
0.970426
0.97098
0.971411
0.971721
0.971877
0.971994
0.97197
0.971836
0.971662
0.971324
0.970858
0.970268
0.969633
0.969039
0.96858
0.968329
0.968329
0.968579
0.969038
0.969632
0.970267
0.970858
0.971324
0.971663
0.971838
0.971972
0.971961
0.971808
0.971613
0.97124
0.970735
0.970101
0.969428
0.968803
0.968323
0.968062
0.968062
0.968323
0.968802
0.969427
0.9701
0.970734
0.97124
0.971613
0.971809
0.971962
0.971961
0.971785
0.971569
0.971157
0.970604
0.969922
0.969205
0.968546
0.968043
0.967771
0.967771
0.968043
0.968545
0.969204
0.969921
0.970604
0.971156
0.971569
0.971786
0.971961
0.971967
0.971767
0.971526
0.97107
0.970466
0.969728
0.968962
0.968265
0.967737
0.967452
0.967452
0.967737
0.968265
0.968962
0.969727
0.970465
0.971069
0.971525
0.971767
0.971967
0.971982
0.971752
0.971483
0.970979
0.970317
0.969519
0.9687
0.967961
0.967404
0.967104
0.967105
0.967404
0.967961
0.9687
0.969518
0.970316
0.970977
0.971482
0.971751
0.971982
0.97201
0.971743
0.971442
0.970882
0.970158
0.969296
0.968421
0.967636
0.967048
0.966732
0.966732
0.967048
0.967636
0.968421
0.969296
0.970157
0.97088
0.97144
0.971742
0.972009
0.972058
0.971747
0.971404
0.97078
0.969989
0.96906
0.968126
0.967294
0.966673
0.96634
0.966341
0.966673
0.967294
0.968126
0.96906
0.969988
0.970779
0.971402
0.971745
0.972055
0.972129
0.971768
0.971377
0.970678
0.969812
0.96881
0.967815
0.966935
0.966281
0.965931
0.965931
0.966281
0.966935
0.967815
0.96881
0.969811
0.970677
0.971375
0.971765
0.972126
0.972228
0.97181
0.971367
0.970584
0.969632
0.968549
0.967488
0.966556
0.965868
0.965502
0.965502
0.965868
0.966556
0.967488
0.968549
0.969631
0.970582
0.971365
0.971807
0.972224
0.972353
0.971876
0.97138
0.970505
0.969459
0.968284
0.967147
0.966158
0.965432
0.965047
0.965047
0.965432
0.966158
0.967147
0.968283
0.969458
0.970503
0.971377
0.971873
0.972349
0.972503
0.971963
0.971418
0.970449
0.969302
0.968024
0.966802
0.965746
0.964974
0.964565
0.964565
0.964974
0.965746
0.966801
0.968023
0.969301
0.970447
0.971415
0.97196
0.972499
0.972677
0.972069
0.97148
0.970416
0.969167
0.967778
0.966461
0.965328
0.964501
0.964062
0.964062
0.964501
0.965327
0.96646
0.967777
0.969165
0.970414
0.971477
0.972066
0.972674
0.972879
0.972195
0.971562
0.970402
0.969049
0.967546
0.966127
0.964909
0.96402
0.963546
0.963546
0.964019
0.964908
0.966126
0.967545
0.969048
0.9704
0.971559
0.972192
0.972876
0.973117
0.972347
0.971665
0.970402
0.968943
0.967319
0.965793
0.964483
0.963526
0.963015
0.963015
0.963526
0.964483
0.965792
0.967318
0.968941
0.9704
0.971662
0.972344
0.973113
0.973403
0.972537
0.971794
0.970414
0.968838
0.967082
0.96544
0.964033
0.963004
0.962454
0.962454
0.963004
0.964032
0.965439
0.967082
0.968837
0.970412
0.971791
0.972534
0.973399
0.973754
0.972783
0.971963
0.970446
0.968734
0.966826
0.96505
0.963534
0.962429
0.961838
0.961838
0.962429
0.963534
0.96505
0.966825
0.968733
0.970445
0.971961
0.97278
0.973749
0.97418
0.973098
0.972188
0.970515
0.968639
0.966549
0.964614
0.962971
0.961778
0.961143
0.961143
0.961778
0.962971
0.964614
0.966549
0.968639
0.970513
0.972185
0.973095
0.974176
0.974695
0.973495
0.972485
0.970642
0.968572
0.966263
0.964134
0.96234
0.961044
0.960358
0.960358
0.961044
0.96234
0.964134
0.966262
0.968572
0.97064
0.972483
0.973492
0.974691
0.975332
0.974004
0.972884
0.970858
0.968556
0.965984
0.963623
0.961648
0.96023
0.959483
0.959483
0.96023
0.961648
0.963623
0.965983
0.968555
0.970857
0.972882
0.974001
0.975329
0.976145
0.974673
0.973431
0.971209
0.968619
0.96573
0.963092
0.960905
0.959345
0.958528
0.958528
0.959345
0.960905
0.963092
0.965729
0.968619
0.971208
0.973429
0.974671
0.976142
0.977157
0.975525
0.974172
0.971753
0.9688
0.965517
0.962545
0.960114
0.958395
0.9575
0.9575
0.958395
0.960114
0.962545
0.965517
0.968799
0.971752
0.97417
0.975523
0.977155
0.978321
0.97652
0.975101
0.972518
0.969134
0.965368
0.961984
0.959269
0.957375
0.956397
0.956397
0.957375
0.959269
0.961984
0.965368
0.969134
0.972518
0.9751
0.976519
0.97832
0.979643
0.977658
0.976205
0.973491
0.969641
0.965308
0.961417
0.958365
0.956275
0.955209
0.955209
0.956275
0.958365
0.961418
0.965308
0.969641
0.973491
0.976204
0.977658
0.979643
0.98143
0.979213
0.97764
0.974701
0.970324
0.965356
0.960864
0.9574
0.955082
0.953922
0.953922
0.955083
0.957401
0.960865
0.965356
0.970325
0.974702
0.97764
0.979213
0.98143
0.984564
0.982
0.980016
0.97645
0.97126
0.965509
0.960328
0.956376
0.953784
0.952519
0.952519
0.953785
0.956377
0.960329
0.96551
0.971261
0.976451
0.980016
0.982
0.984565
0.991323
0.988136
0.984877
0.979519
0.972727
0.965783
0.959762
0.955278
0.952372
0.950977
0.950977
0.952373
0.955279
0.959764
0.965784
0.972728
0.97952
0.984878
0.988137
0.991324
1.00735
1.00295
0.996245
0.986155
0.975558
0.966317
0.959096
0.954078
0.950838
0.949273
0.949274
0.95084
0.95408
0.959098
0.966319
0.975559
0.986156
0.996247
1.00295
1.00735
1.04705
1.04012
1.02468
1.00217
0.981778
0.967541
0.958393
0.952737
0.949148
0.947384
0.947384
0.94915
0.95274
0.958396
0.967544
0.98178
1.00217
1.02468
1.04012
1.04705
1.15113
1.13807
1.09893
1.04231
0.996546
0.970716
0.958001
0.951195
0.947206
0.94527
0.94527
0.947208
0.951197
0.958003
0.970719
0.996548
1.04232
1.09893
1.13807
1.15113
1.38248
1.36084
1.28282
1.14642
1.03276
0.979055
0.958692
0.949533
0.944928
0.942863
0.942863
0.94493
0.949536
0.958695
0.979058
1.03276
1.14643
1.28282
1.36084
1.38249
1.70047
1.67456
1.57692
1.36006
1.12225
1.00065
0.962092
0.948221
0.942356
0.940089
0.94009
0.942358
0.948224
0.962096
1.00066
1.12225
1.36006
1.57692
1.67456
1.70048
1.97517
1.95104
1.8671
1.64041
1.29692
1.05277
0.971604
0.948031
0.939692
0.936919
0.93692
0.939694
0.948034
0.971608
1.05277
1.29692
1.64041
1.8671
1.95104
1.97517
2.11088
2.09276
2.04315
1.88801
1.53111
1.1552
0.992549
0.950111
0.937233
0.933351
0.933352
0.937235
0.950115
0.992553
1.15521
1.53112
1.88802
2.04315
2.09275
2.11087
2.15663
2.14235
2.11478
2.03207
1.75731
1.30393
1.03344
0.956371
0.935339
0.929381
0.929382
0.935341
0.956375
1.03344
1.30394
1.75732
2.03208
2.11478
2.14234
2.15663
2.16841
2.15646
2.14192
2.09658
1.91658
1.47328
1.09873
0.968056
0.934373
0.924967
0.924968
0.934375
0.96806
1.09873
1.47329
1.91659
2.09659
2.14191
2.15645
2.16841
2.16454
2.15423
2.14664
2.11965
2.00303
1.62986
1.18288
0.986464
0.93474
0.920071
0.920072
0.934743
0.986469
1.18289
1.62987
2.00304
2.11964
2.14664
2.15423
2.16454
2.15217
2.14286
2.13702
2.1154
2.03399
1.74754
1.2751
1.01254
0.936467
0.914705
0.914706
0.93647
1.01255
1.27512
1.74755
2.03399
2.1154
2.13702
2.14287
2.15217
2.13405
2.12477
2.11571
2.08853
2.02403
1.81284
1.36595
1.04594
0.938971
0.908841
0.908842
0.938974
1.04595
1.36596
1.81286
2.02403
2.08852
2.11571
2.12478
2.13406
2.11305
2.10239
2.08433
2.04246
1.98782
1.83377
1.44661
1.08534
0.942056
0.902483
0.902484
0.942059
1.08535
1.44662
1.83378
1.98782
2.04246
2.08434
2.1024
2.11306
2.09032
2.07668
2.04493
1.98907
1.94224
1.83255
1.51164
1.12757
0.946427
0.895625
0.895626
0.94643
1.12757
1.51165
1.83256
1.94224
1.98907
2.04494
2.07669
2.09033
2.06724
2.04916
2.00251
1.93987
1.90103
1.8207
1.55774
1.16876
0.952481
0.888145
0.888146
0.952484
1.16877
1.55775
1.82071
1.90102
1.93987
2.00251
2.04917
2.06724
2.04466
2.02204
1.96158
1.89702
1.86655
1.80281
1.58404
1.2053
0.959802
0.8798
0.879801
0.959806
1.20531
1.58405
1.80281
1.86655
1.89701
1.96158
2.02204
2.04466
2.02261
1.99656
1.92313
1.85265
1.8257
1.77403
1.59366
1.23493
0.967659
0.870567
0.870568
0.967663
1.23494
1.59366
1.77402
1.82569
1.85264
1.92312
1.99655
2.0226
2.00058
1.97204
1.88646
1.79579
1.76161
1.72569
1.58987
1.25892
0.975678
0.86088
0.86088
0.975682
1.25893
1.58987
1.72569
1.7616
1.79577
1.88645
1.97203
2.00056
1.97848
1.94667
1.84815
1.72844
1.68239
1.66396
1.57175
1.27871
0.984016
0.851384
0.851385
0.984018
1.27872
1.57175
1.66395
1.68238
1.72843
1.84813
1.94665
1.97846
1.95707
1.91966
1.80416
1.66288
1.61098
1.60727
1.54044
1.28912
0.991888
0.842685
0.842685
0.991888
1.28912
1.54044
1.60726
1.61097
1.66286
1.80414
1.91964
1.95704
1.93731
1.89256
1.75776
1.60594
1.55573
1.55791
1.50498
1.28882
0.997756
0.834999
0.834999
0.997754
1.28881
1.50498
1.5579
1.55572
1.60593
1.75774
1.89253
1.93728
1.91984
1.86697
1.7126
1.55622
1.51044
1.51357
1.46973
1.28096
1.00063
0.828204
0.828203
1.00063
1.28096
1.46973
1.51357
1.51043
1.55621
1.71259
1.86695
1.91981
1.90494
1.84375
1.67024
1.51179
1.46995
1.47279
1.4356
1.26853
1.00044
0.822095
0.822093
1.00044
1.26853
1.4356
1.47279
1.46995
1.51179
1.67024
1.84373
1.90492
1.89264
1.82334
1.63145
1.47168
1.43284
1.43514
1.40296
1.25325
0.997634
0.816575
0.816572
0.997629
1.25324
1.40296
1.43515
1.43284
1.47168
1.63145
1.82334
1.89263
1.88269
1.80583
1.59641
1.43571
1.39922
1.40022
1.37175
1.23586
0.992694
0.81165
0.811648
0.99269
1.23586
1.37175
1.40022
1.39922
1.43572
1.59642
1.80583
1.88268
1.87473
1.79107
1.56508
1.40322
1.3686
1.36762
1.34178
1.21723
0.986167
0.807402
0.8074
0.986163
1.21722
1.34178
1.36762
1.3686
1.40323
1.56508
1.79108
1.87474
1.86839
1.77881
1.53747
1.37345
1.33999
1.33706
1.31254
1.19756
0.978493
0.803786
0.803784
0.978489
1.19756
1.31254
1.33706
1.33999
1.37346
1.53747
1.77882
1.86839
1.86343
1.76872
1.51336
1.34574
1.31262
1.30818
1.28425
1.177
0.969743
0.800728
0.800727
0.969739
1.177
1.28425
1.30818
1.31263
1.34575
1.51336
1.76873
1.86343
1.86004
1.76106
1.49249
1.31953
1.28594
1.28089
1.25688
1.15552
0.960057
0.797832
0.79783
0.960054
1.15552
1.25688
1.28089
1.28594
1.31953
1.4925
1.76106
1.86004
1.85825
1.75529
1.47484
1.29434
1.25946
1.25494
1.23055
1.13335
0.949393
0.795054
0.795053
0.949391
1.13335
1.23056
1.25494
1.25946
1.29434
1.47485
1.75529
1.85826
1.85788
1.75295
1.4599
1.26964
1.23268
1.22994
1.20515
1.11081
0.93811
0.792392
0.792392
0.938109
1.1108
1.20515
1.22994
1.23269
1.26965
1.45991
1.75296
1.8579
1.8595
1.7531
1.44846
1.24524
1.20525
1.20492
1.18009
1.08819
0.926567
0.790013
0.790013
0.926567
1.08819
1.18009
1.20492
1.20526
1.24524
1.44847
1.75312
1.85953
1.86292
1.75595
1.44035
1.22077
1.17669
1.17853
1.15433
1.06561
0.915002
0.787888
0.787887
0.915001
1.06561
1.15433
1.17854
1.1767
1.22078
1.44036
1.75597
1.86295
1.86746
1.76081
1.43624
1.19653
1.1465
1.14818
1.12641
1.04362
0.903618
0.785812
0.785812
0.903617
1.04362
1.12641
1.14819
1.14651
1.19654
1.43625
1.76084
1.86749
1.87243
1.7669
1.43678
1.1742
1.11324
1.11229
1.09543
1.02295
0.892753
0.783559
0.783558
0.892751
1.02294
1.09544
1.1123
1.11325
1.1742
1.43678
1.76692
1.87245
1.87739
1.77335
1.44093
1.15606
1.07839
1.07265
1.06176
1.00344
0.882968
0.781187
0.781186
0.882966
1.00344
1.06177
1.07266
1.0784
1.15607
1.44093
1.77335
1.87739
1.88225
1.77978
1.44666
1.14329
1.04705
1.03417
1.02795
0.984163
0.874933
0.779107
0.779106
0.87493
0.984161
1.02796
1.03418
1.04705
1.14329
1.44666
1.77977
1.88223
1.88743
1.78656
1.45298
1.13566
1.02285
1.00245
0.998433
0.964084
0.86779
0.777788
0.777787
0.867787
0.964083
0.998434
1.00245
1.02285
1.13567
1.45298
1.78654
1.88739
1.89372
1.79452
1.46009
1.13156
1.00665
0.980599
0.975842
0.943951
0.859677
0.777138
0.777137
0.859675
0.94395
0.975842
0.980599
1.00665
1.13156
1.46009
1.7945
1.89369
1.90174
1.80432
1.46887
1.12978
0.996331
0.966323
0.958228
0.925697
0.85056
0.776563
0.776562
0.850558
0.925696
0.958226
0.966321
0.996329
1.12978
1.46887
1.8043
1.90172
1.91143
1.816
1.48008
1.12985
0.988949
0.955755
0.943234
0.909325
0.841119
0.775549
0.775548
0.841118
0.909322
0.943231
0.955752
0.988945
1.12985
1.48007
1.81599
1.91142
1.92217
1.8291
1.49382
1.13179
0.982752
0.946131
0.929187
0.893906
0.831765
0.773948
0.773948
0.831763
0.893903
0.929184
0.946127
0.982747
1.13178
1.49381
1.82909
1.92217
1.93328
1.84302
1.50976
1.13567
0.976951
0.93601
0.915168
0.878902
0.822678
0.771963
0.771963
0.822677
0.878899
0.915164
0.936005
0.976945
1.13566
1.50975
1.84302
1.93328
1.94433
1.85733
1.5275
1.14154
0.97136
0.925111
0.900784
0.864391
0.81407
0.769884
0.769884
0.81407
0.864389
0.900781
0.925106
0.971353
1.14153
1.52748
1.85732
1.94432
1.95509
1.87173
1.54658
1.14939
0.966153
0.9136
0.886134
0.85063
0.806096
0.76787
0.767869
0.806095
0.850629
0.886131
0.913595
0.966145
1.14938
1.54656
1.87171
1.95508
1.96549
1.88607
1.56663
1.15908
0.961469
0.901834
0.871608
0.837829
0.798796
0.76591
0.76591
0.798795
0.837828
0.871605
0.901829
0.961461
1.15907
1.56661
1.88605
1.96547
1.97548
1.90029
1.58744
1.17036
0.957504
0.890268
0.857732
0.826124
0.792126
0.763933
0.763932
0.792125
0.826123
0.85773
0.890263
0.957495
1.17035
1.58743
1.90026
1.97546
1.98515
1.91436
1.60924
1.18338
0.954214
0.879391
0.844879
0.815619
0.786075
0.761952
0.761952
0.786074
0.815618
0.844877
0.879386
0.954206
1.18337
1.60922
1.91435
1.98513
1.99472
1.9284
1.63213
1.19844
0.951849
0.869489
0.833432
0.806385
0.780694
0.760105
0.760105
0.780693
0.806384
0.833428
0.869483
0.951842
1.19843
1.63212
1.92839
1.99472
2.00442
1.94257
1.65608
1.216
0.950612
0.860823
0.823395
0.798366
0.776084
0.75859
0.75859
0.776084
0.798365
0.823392
0.860818
0.950608
1.21599
1.65608
1.94258
2.00444
2.01432
1.95691
1.68092
1.23633
0.951173
0.853625
0.814896
0.791466
0.772121
0.757458
0.757458
0.772121
0.791464
0.814893
0.85362
0.95117
1.23633
1.68093
1.95695
2.01437
2.02424
1.97125
1.70663
1.25964
0.954474
0.848182
0.807787
0.785513
0.768645
0.756587
0.756587
0.768644
0.785512
0.807785
0.848178
0.95447
1.25963
1.70664
1.9713
2.0243
2.03372
1.98518
1.73321
1.28595
0.961057
0.844665
0.801987
0.780315
0.76542
0.755731
0.755731
0.765419
0.780314
0.801986
0.844662
0.961051
1.28594
1.73322
1.98525
2.0338
2.04226
1.99821
1.76065
1.31531
0.970986
0.843025
0.797412
0.775794
0.762361
0.754701
0.754701
0.76236
0.775794
0.797411
0.843023
0.970979
1.3153
1.76067
1.99828
2.04235
2.04947
2.00996
1.78876
1.3478
0.984295
0.843242
0.79403
0.771968
0.759586
0.753485
0.753486
0.759586
0.771968
0.79403
0.843241
0.984287
1.3478
1.78879
2.01002
2.04955
2.05511
2.02032
1.81723
1.38331
1.0009
0.845265
0.79184
0.768978
0.757337
0.752268
0.752268
0.757337
0.768979
0.79184
0.845264
1.00089
1.38331
1.81726
2.02036
2.05515
2.05909
2.02936
1.84587
1.42165
1.02068
0.84913
0.790916
0.766968
0.755772
0.751273
0.751273
0.755773
0.766969
0.790917
0.84913
1.02068
1.42166
1.84589
2.02938
2.05911
2.06179
2.03744
1.87464
1.46261
1.04369
0.854929
0.791286
0.765934
0.754838
0.750573
0.750573
0.754839
0.765935
0.791287
0.85493
1.04369
1.46261
1.87465
2.03744
2.06179
2.06397
2.04536
1.90322
1.50597
1.07026
0.862783
0.792843
0.765626
0.754267
0.750011
0.750011
0.754268
0.765627
0.792845
0.862785
1.07026
1.50597
1.90322
2.04535
2.06396
2.06634
2.0535
1.93103
1.55209
1.10093
0.872773
0.79537
0.765713
0.753729
0.749302
0.749302
0.75373
0.765715
0.795372
0.872777
1.10093
1.55209
1.93102
2.05349
2.06632
2.06903
2.06156
1.95789
1.60155
1.13657
0.885031
0.798665
0.765974
0.753004
0.748231
0.748231
0.753005
0.765976
0.798668
0.885036
1.13658
1.60156
1.95788
2.06155
2.06901
2.07185
2.06916
1.98353
1.65433
1.17882
0.900089
0.802665
0.766357
0.75206
0.746791
0.746792
0.752061
0.766359
0.802668
0.900095
1.17883
1.65433
1.98352
2.06915
2.07184
2.07452
2.07619
2.0073
1.70927
1.22996
0.919403
0.807615
0.76701
0.751035
0.745149
0.745149
0.751036
0.767012
0.807619
0.919409
1.22997
1.70927
2.00729
2.07618
2.07452
2.07694
2.08229
2.02833
1.76508
1.29196
0.945622
0.814316
0.768278
0.750136
0.743462
0.743463
0.750137
0.76828
0.81432
0.945629
1.29196
1.76507
2.02832
2.08227
2.07693
2.07899
2.08723
2.04549
1.82028
1.36543
0.982533
0.824446
0.770734
0.749576
0.741806
0.741806
0.749578
0.770737
0.82445
0.982542
1.36543
1.82028
2.04547
2.08721
2.07896
2.08065
2.09086
2.05786
1.87267
1.44939
1.03411
0.840431
0.775068
0.749528
0.740204
0.740205
0.74953
0.775071
0.840435
1.03412
1.4494
1.87266
2.05783
2.09083
2.08061
2.08185
2.09307
2.06595
1.91934
1.54201
1.10347
0.864363
0.78162
0.749995
0.738543
0.738544
0.749997
0.781622
0.864366
1.10347
1.54202
1.91932
2.06591
2.09302
2.0818
2.08245
2.09397
2.07131
1.95777
1.63876
1.19317
0.898862
0.790692
0.750824
0.736369
0.736369
0.750826
0.790694
0.898864
1.19318
1.63877
1.95775
2.07126
2.09392
2.0824
2.08234
2.0938
2.07494
1.98642
1.73372
1.30532
0.949757
0.803743
0.752116
0.73301
0.73301
0.752117
0.803744
0.949757
1.30532
1.73372
1.98641
2.0749
2.09376
2.0823
2.08165
2.0928
2.07648
2.00556
1.82028
1.43761
1.02737
0.825159
0.754771
0.728652
0.728652
0.754772
0.82516
1.02736
1.43761
1.82027
2.00555
2.07645
2.09276
2.08161
2.08068
2.09127
2.07635
2.01819
1.88945
1.57906
1.14322
0.862966
0.760778
0.724616
0.724616
0.760778
0.862965
1.14322
1.57905
1.88945
2.01819
2.07634
2.09125
2.08066
2.07971
2.08959
2.07535
2.02697
1.93632
1.71307
1.30128
0.933371
0.775069
0.723396
0.723396
0.775069
0.93337
1.30128
1.71307
1.93633
2.02697
2.07536
2.08959
2.07971
2.07873
2.08793
2.07423
2.03266
1.96487
1.82268
1.48763
1.0625
0.810916
0.728405
0.728405
0.810916
1.06249
1.48762
1.82268
1.96488
2.03267
2.07424
2.08794
2.07875
2.0775
2.08611
2.07324
2.03593
1.98248
1.89536
1.66934
1.26243
0.90343
0.752392
0.752392
0.903429
1.26242
1.66934
1.89536
1.98249
2.03595
2.07327
2.08614
2.07753
2.07579
2.08374
2.07197
2.03761
1.99328
1.93513
1.80709
1.50056
1.10583
0.843063
0.843064
1.10583
1.50055
1.80708
1.93514
1.9933
2.03764
2.07201
2.08379
2.07583
2.07375
2.08083
2.07011
2.03833
1.9988
1.95503
1.88473
1.71139
1.39918
1.10809
1.10809
1.39918
1.71138
1.88473
1.95504
1.99882
2.03836
2.07015
2.08087
2.0738
2.07283
2.07876
2.0687
2.03925
2.00208
1.96481
1.91944
1.83687
1.67317
1.48922
1.48922
1.67316
1.83687
1.91944
1.96482
2.0021
2.03928
2.06874
2.0788
2.07287
2.07705
2.0818
2.07167
2.04335
2.00751
1.97248
1.93661
1.89137
1.82457
1.75195