# vtk DataFile Version 3.0
Grid data
ASCII
DATASET STRUCTURED_POINTS
DIMENSIONS 20 200 1
ORIGIN 0 0 0
SPACING 0.0125 0.005 1
POINT_DATA 4000
SCALARS rho double
LOOKUP_TABLE default
0.971631
0.97163
0.971635
0.971636
0.971606
0.971527
0.971411
0.971287
0.971184
0.971125
0.971125
0.971184
0.971286
0.97141
0.971527
0.971605
0.971635
0.971633
0.971628
0.971624
0.970292
0.970304
0.970331
0.970364
0.970354
0.970267
0.970115
0.969946
0.969806
0.969729
0.969728
0.969806
0.969945
0.970114
0.970266
0.970353
0.970364
0.970332
0.970305
0.970294
0.97004
0.97006
0.970095
0.970127
0.97011
0.970016
0.969857
0.969677
0.969527
0.969443
0.969442
0.969526
0.969676
0.969854
0.970014
0.970108
0.970127
0.970096
0.970063
0.970045
0.97037
0.970388
0.970409
0.97041
0.970349
0.970209
0.970003
0.969778
0.969587
0.969478
0.969477
0.969585
0.969775
0.97
0.970205
0.970346
0.970409
0.970411
0.970392
0.970376
0.97084
0.970853
0.970855
0.970818
0.970711
0.970525
0.97028
0.970017
0.969789
0.969655
0.969654
0.969786
0.970013
0.970276
0.97052
0.970707
0.970817
0.970857
0.970857
0.970845
0.971227
0.971232
0.971215
0.971145
0.971
0.97078
0.970504
0.970206
0.96994
0.969778
0.969777
0.969936
0.970202
0.9705
0.970776
0.970997
0.971143
0.971215
0.971235
0.97123
0.97142
0.971421
0.971391
0.971304
0.971143
0.97091
0.970618
0.970296
0.970007
0.969834
0.969833
0.970004
0.970292
0.970614
0.970907
0.97114
0.971301
0.97139
0.971421
0.971421
0.971418
0.971417
0.971385
0.971295
0.971134
0.970899
0.970593
0.970257
0.969973
0.969817
0.969816
0.969971
0.970254
0.97059
0.970897
0.971132
0.971293
0.971383
0.971417
0.971417
0.971281
0.971283
0.971254
0.97117
0.971015
0.970774
0.970452
0.970114
0.969858
0.969734
0.969735
0.969858
0.970113
0.97045
0.970772
0.971013
0.971168
0.971252
0.971281
0.971279
0.971088
0.971092
0.971068
0.970989
0.970834
0.97058
0.970245
0.969914
0.969683
0.969579
0.969581
0.969686
0.969915
0.970244
0.970579
0.970832
0.970987
0.971065
0.97109
0.971085
0.970894
0.970901
0.970879
0.970802
0.97064
0.97037
0.970029
0.969703
0.969468
0.969352
0.969353
0.96947
0.969705
0.970029
0.970369
0.970638
0.970799
0.970876
0.970898
0.970891
0.970729
0.970737
0.970716
0.970635
0.970462
0.970181
0.969836
0.969498
0.969228
0.969075
0.969075
0.969229
0.969501
0.969837
0.970181
0.970461
0.970633
0.970713
0.970733
0.970726
0.970591
0.9706
0.97058
0.970496
0.970313
0.970025
0.969671
0.969301
0.96898
0.968787
0.968788
0.968981
0.969303
0.969673
0.970026
0.970312
0.970494
0.970577
0.970597
0.970587
0.970467
0.970478
0.970461
0.970374
0.970187
0.969892
0.969516
0.969103
0.968735
0.968513
0.968513
0.968736
0.969105
0.969518
0.969893
0.970187
0.970372
0.970457
0.970474
0.970462
0.97034
0.970355
0.970342
0.970257
0.970068
0.96976
0.969352
0.968896
0.968492
0.968252
0.968253
0.968493
0.968898
0.969355
0.969762
0.970069
0.970256
0.970339
0.970351
0.970334
0.970203
0.970224
0.970218
0.970135
0.969944
0.969616
0.969173
0.968679
0.968249
0.967998
0.967999
0.968251
0.968682
0.969176
0.969619
0.969944
0.970134
0.970215
0.970219
0.970197
0.970058
0.970086
0.970088
0.970008
0.96981
0.96946
0.968983
0.968459
0.968008
0.967748
0.967749
0.968011
0.968462
0.968987
0.969462
0.969811
0.970008
0.970085
0.970082
0.970052
0.969915
0.96995
0.969961
0.969881
0.969673
0.9693
0.968795
0.968245
0.967777
0.967509
0.96751
0.96778
0.968249
0.968799
0.969303
0.969675
0.969881
0.969959
0.969946
0.969909
0.969782
0.969826
0.969845
0.969764
0.969543
0.969148
0.968619
0.968048
0.967565
0.967288
0.967289
0.967568
0.968053
0.968624
0.969152
0.969546
0.969765
0.969844
0.969822
0.969777
0.969669
0.96972
0.969747
0.969662
0.969428
0.969013
0.968463
0.967873
0.967376
0.967091
0.967092
0.967379
0.967878
0.968468
0.969018
0.969432
0.969664
0.969746
0.969717
0.969665
0.969581
0.969636
0.969667
0.969579
0.969333
0.968899
0.96833
0.967723
0.967213
0.966921
0.966922
0.967216
0.967728
0.968335
0.968904
0.969337
0.969582
0.969668
0.969634
0.969579
0.969526
0.969577
0.969606
0.969512
0.969253
0.968804
0.968218
0.967597
0.967074
0.966776
0.966777
0.967077
0.967601
0.968223
0.968809
0.969258
0.969515
0.969607
0.969576
0.969524
0.969508
0.969548
0.969563
0.969456
0.969185
0.968722
0.968122
0.967488
0.966955
0.96665
0.966651
0.966957
0.967492
0.968127
0.968728
0.96919
0.969459
0.969565
0.969547
0.969506
0.969526
0.969551
0.969543
0.969414
0.969126
0.968649
0.968036
0.967389
0.966847
0.966537
0.966538
0.966849
0.967393
0.968041
0.968655
0.969132
0.969418
0.969545
0.969551
0.969526
0.969575
0.969585
0.969552
0.969394
0.969084
0.968587
0.967958
0.967299
0.966747
0.966432
0.966433
0.966749
0.967303
0.967964
0.968593
0.96909
0.969399
0.969555
0.969586
0.969575
0.969639
0.96964
0.969589
0.969405
0.969068
0.968548
0.967898
0.967224
0.966661
0.966341
0.966341
0.966663
0.967227
0.967903
0.968554
0.969074
0.96941
0.969592
0.969642
0.969639
0.969703
0.969703
0.969643
0.969442
0.969082
0.968537
0.967866
0.967174
0.966599
0.966273
0.966273
0.966601
0.967177
0.967871
0.968543
0.969089
0.969448
0.969647
0.969705
0.969704
0.969756
0.969756
0.969697
0.96949
0.969115
0.968551
0.96786
0.967151
0.966565
0.966232
0.966233
0.966566
0.967154
0.967865
0.968557
0.969122
0.969496
0.969702
0.969759
0.969758
0.969794
0.969793
0.969735
0.969527
0.969144
0.968568
0.967864
0.967143
0.966547
0.966209
0.966209
0.966548
0.967145
0.967868
0.968574
0.969151
0.969533
0.96974
0.969796
0.969796
0.969816
0.969809
0.969748
0.969537
0.969149
0.968566
0.967854
0.967125
0.966523
0.966181
0.966181
0.966524
0.967127
0.967858
0.968571
0.969155
0.969542
0.969753
0.969812
0.969818
0.969823
0.969807
0.969737
0.969516
0.969121
0.968532
0.967814
0.96708
0.966473
0.96613
0.96613
0.966474
0.967081
0.967817
0.968536
0.969127
0.969522
0.969741
0.96981
0.969826
0.969816
0.969788
0.969703
0.969468
0.969062
0.968464
0.96774
0.967002
0.966393
0.966048
0.966048
0.966393
0.967003
0.967742
0.968468
0.969067
0.969473
0.969707
0.969791
0.969819
0.969796
0.969754
0.969651
0.969398
0.968977
0.96837
0.967639
0.966897
0.966286
0.96594
0.96594
0.966286
0.966898
0.967641
0.968373
0.968982
0.969403
0.969655
0.969757
0.969799
0.969761
0.969705
0.969582
0.96931
0.968873
0.968254
0.967518
0.966772
0.966159
0.965813
0.965813
0.96616
0.966773
0.967519
0.968257
0.968876
0.969314
0.969586
0.969708
0.969764
0.969714
0.969645
0.9695
0.969206
0.96875
0.96812
0.967377
0.966629
0.966016
0.96567
0.96567
0.966016
0.96663
0.967378
0.968122
0.968753
0.969209
0.969503
0.969648
0.969717
0.969657
0.969575
0.969409
0.96909
0.968612
0.967968
0.967217
0.966468
0.965855
0.965511
0.965511
0.965856
0.966468
0.967218
0.967969
0.968614
0.969092
0.969411
0.969577
0.96966
0.969593
0.969499
0.969312
0.968967
0.968465
0.967802
0.967041
0.966289
0.965678
0.965335
0.965335
0.965678
0.96629
0.967043
0.967803
0.968466
0.968969
0.969314
0.969501
0.969595
0.969524
0.96942
0.969213
0.968842
0.968312
0.967628
0.966855
0.966099
0.965488
0.965147
0.965148
0.965489
0.9661
0.966856
0.967629
0.968313
0.968843
0.969215
0.969422
0.969526
0.969453
0.969339
0.969114
0.968717
0.968158
0.967452
0.966665
0.965904
0.965295
0.964956
0.964956
0.965296
0.965905
0.966667
0.967453
0.968159
0.968718
0.969115
0.96934
0.969454
0.96938
0.969256
0.969013
0.96859
0.968003
0.967275
0.966476
0.965712
0.965105
0.964769
0.964769
0.965106
0.965713
0.966478
0.967276
0.968003
0.96859
0.969013
0.969257
0.969381
0.969305
0.969169
0.968906
0.968457
0.967843
0.967096
0.966289
0.965526
0.964923
0.964591
0.964591
0.964924
0.965527
0.966291
0.967097
0.967843
0.968457
0.968906
0.96917
0.969306
0.969224
0.969075
0.968791
0.968315
0.967675
0.966912
0.966102
0.965345
0.964751
0.964424
0.964425
0.964753
0.965347
0.966105
0.966914
0.967675
0.968315
0.96879
0.969075
0.969224
0.969133
0.96897
0.968665
0.968163
0.967498
0.966722
0.965913
0.965168
0.964588
0.96427
0.96427
0.96459
0.965171
0.965916
0.966724
0.967498
0.968162
0.968664
0.968968
0.969131
0.969026
0.968848
0.968524
0.968
0.967314
0.966529
0.965723
0.964992
0.96443
0.964124
0.964125
0.964432
0.964995
0.965726
0.966531
0.967315
0.967999
0.968522
0.968846
0.969024
0.968902
0.968708
0.968363
0.967823
0.967127
0.966338
0.965537
0.964821
0.964277
0.963984
0.963985
0.96428
0.964824
0.965541
0.966341
0.967129
0.967823
0.968362
0.968705
0.968898
0.968759
0.968547
0.968179
0.967628
0.966934
0.966155
0.965366
0.964663
0.964135
0.963853
0.963854
0.964138
0.964667
0.96537
0.966158
0.966937
0.967629
0.968178
0.968543
0.968753
0.968594
0.968365
0.967972
0.967411
0.966728
0.965973
0.965209
0.964526
0.964011
0.963736
0.963737
0.964014
0.96453
0.965214
0.965978
0.966731
0.967412
0.96797
0.96836
0.968586
0.968401
0.968163
0.967747
0.967175
0.966504
0.965781
0.965054
0.9644
0.963903
0.963635
0.963636
0.963906
0.964405
0.965059
0.965786
0.966508
0.967176
0.967744
0.968157
0.968393
0.968173
0.967939
0.967513
0.966934
0.966268
0.965569
0.96488
0.964264
0.963793
0.963537
0.963538
0.963796
0.96427
0.964886
0.965574
0.966271
0.966934
0.967509
0.967933
0.968166
0.967902
0.967689
0.967276
0.966703
0.966036
0.965344
0.964678
0.964095
0.963653
0.963413
0.963415
0.963657
0.964101
0.964685
0.965349
0.966038
0.966701
0.967271
0.967683
0.967896
0.967585
0.967406
0.967033
0.966488
0.965827
0.965129
0.964461
0.963889
0.963466
0.963241
0.963243
0.963471
0.963894
0.964465
0.965131
0.965826
0.966484
0.967028
0.967401
0.967581
0.967224
0.967086
0.966771
0.966278
0.965643
0.964939
0.964251
0.963664
0.96324
0.963018
0.96302
0.963243
0.963668
0.964253
0.964938
0.965639
0.966273
0.966766
0.967081
0.967221
0.966828
0.966727
0.966477
0.966053
0.965465
0.964771
0.964064
0.963446
0.962998
0.962765
0.962766
0.962999
0.963448
0.964063
0.964768
0.96546
0.966048
0.966473
0.966723
0.966825
0.966408
0.966339
0.966147
0.965793
0.965266
0.964603
0.963891
0.963245
0.962763
0.96251
0.96251
0.962763
0.963243
0.963888
0.964598
0.965261
0.965789
0.966143
0.966336
0.966405
0.965981
0.965936
0.965791
0.965495
0.965025
0.964402
0.963703
0.963043
0.962536
0.962263
0.962263
0.962534
0.96304
0.963698
0.964396
0.965019
0.96549
0.965787
0.965933
0.965979
0.965561
0.965536
0.965425
0.965171
0.964743
0.964153
0.963474
0.962815
0.962296
0.962012
0.962011
0.962294
0.962811
0.963468
0.964146
0.964736
0.965165
0.965421
0.965534
0.96556
0.96516
0.965151
0.965066
0.964839
0.964435
0.963864
0.963196
0.962541
0.962018
0.961729
0.961728
0.962015
0.962535
0.963188
0.963855
0.964426
0.964832
0.965062
0.965149
0.96516
0.96478
0.964785
0.964724
0.964515
0.964123
0.963555
0.962884
0.962223
0.961693
0.961397
0.961395
0.961688
0.962215
0.962874
0.963544
0.964112
0.964507
0.964719
0.964784
0.964782
0.964416
0.964435
0.964396
0.964206
0.963821
0.963247
0.962561
0.961879
0.961331
0.961025
0.961023
0.961325
0.961869
0.962548
0.963234
0.963809
0.964197
0.964391
0.964434
0.964418
0.964063
0.964094
0.964079
0.963909
0.963534
0.962953
0.962245
0.961536
0.960964
0.960642
0.96064
0.960956
0.961524
0.96223
0.962937
0.963521
0.963899
0.964074
0.964094
0.964065
0.963725
0.963767
0.963774
0.963624
0.963261
0.962675
0.961949
0.961216
0.960621
0.960286
0.960283
0.960612
0.961202
0.961933
0.962658
0.963247
0.963615
0.96377
0.963768
0.963728
0.963426
0.963473
0.963494
0.963357
0.963002
0.962416
0.961681
0.960934
0.960327
0.959985
0.959982
0.960318
0.96092
0.961665
0.9624
0.962989
0.963348
0.963491
0.963474
0.963429
0.963192
0.963236
0.963259
0.963122
0.96277
0.962185
0.961452
0.960705
0.960097
0.959754
0.959751
0.960088
0.960691
0.961436
0.96217
0.962759
0.963115
0.963257
0.963238
0.963197
0.963042
0.963072
0.963083
0.962935
0.962581
0.961999
0.961274
0.960535
0.959933
0.959595
0.959591
0.959924
0.960521
0.961259
0.961986
0.962572
0.96293
0.963084
0.963077
0.963047
0.962971
0.962983
0.962974
0.962807
0.962448
0.96187
0.961155
0.960426
0.959833
0.959498
0.959495
0.959823
0.960413
0.961142
0.961859
0.962441
0.962805
0.962977
0.962988
0.962977
0.962964
0.962955
0.962926
0.962738
0.962373
0.961798
0.961092
0.960371
0.959783
0.959452
0.959449
0.959774
0.960359
0.96108
0.96179
0.96237
0.962739
0.96293
0.962961
0.96297
0.963013
0.962982
0.962933
0.962722
0.962346
0.961768
0.961066
0.960351
0.959769
0.959442
0.959439
0.959761
0.96034
0.961056
0.961762
0.962345
0.962725
0.962938
0.962988
0.963019
0.96313
0.963073
0.962998
0.962752
0.962352
0.961759
0.961057
0.960349
0.959777
0.959456
0.959453
0.959769
0.960339
0.961049
0.961755
0.962352
0.962756
0.963004
0.963079
0.963136
0.963336
0.963243
0.963127
0.962827
0.962382
0.961761
0.961054
0.960356
0.9598
0.959489
0.959487
0.959794
0.960349
0.961048
0.961759
0.962384
0.962832
0.963134
0.96325
0.963343
0.963637
0.963497
0.963325
0.962949
0.96244
0.961778
0.961061
0.960378
0.959843
0.959547
0.959545
0.959839
0.960373
0.961058
0.961778
0.962443
0.962955
0.963332
0.963506
0.963645
0.964009
0.963815
0.963575
0.963113
0.96253
0.96182
0.961092
0.960423
0.959913
0.959634
0.959633
0.959911
0.960422
0.961092
0.961823
0.962535
0.96312
0.963583
0.963824
0.964018
0.964407
0.964155
0.963848
0.9633
0.962648
0.961891
0.96115
0.960494
0.960007
0.959745
0.959745
0.960008
0.960496
0.961154
0.961897
0.962655
0.963308
0.963857
0.964164
0.964415
0.964788
0.964477
0.964112
0.963488
0.962775
0.961975
0.96122
0.960571
0.960102
0.959854
0.959855
0.960106
0.960577
0.961227
0.961984
0.962784
0.963497
0.96412
0.964484
0.964795
0.965135
0.964763
0.96435
0.963657
0.962887
0.962044
0.961268
0.960618
0.960158
0.959919
0.959921
0.960164
0.960627
0.961278
0.962054
0.962897
0.963665
0.964357
0.964768
0.96514
0.965458
0.965018
0.964564
0.963801
0.962971
0.962073
0.961263
0.960596
0.960132
0.959894
0.959897
0.96014
0.960607
0.961275
0.962084
0.962981
0.963809
0.964569
0.965022
0.965461
0.965778
0.965263
0.964769
0.963931
0.963028
0.962055
0.96119
0.960483
0.959997
0.95975
0.959753
0.960006
0.960495
0.961202
0.962066
0.963036
0.963938
0.964774
0.965266
0.965781
0.966113
0.965511
0.96498
0.964059
0.963068
0.961998
0.961048
0.960276
0.959747
0.959479
0.959482
0.959756
0.960288
0.961061
0.962009
0.963076
0.964065
0.964984
0.965514
0.966116
0.966467
0.965769
0.965204
0.964196
0.963101
0.96191
0.960849
0.959984
0.959391
0.959091
0.959095
0.9594
0.959996
0.960862
0.961921
0.963108
0.964201
0.965207
0.965772
0.96647
0.96684
0.966036
0.96544
0.964344
0.963127
0.961792
0.960596
0.959615
0.958941
0.958599
0.958602
0.958949
0.959626
0.960607
0.961802
0.963134
0.96435
0.965444
0.966039
0.966843
0.967234
0.966315
0.965689
0.964502
0.963137
0.961633
0.96028
0.959168
0.9584
0.958009
0.958011
0.958407
0.959178
0.960291
0.961643
0.963145
0.964508
0.965693
0.966318
0.967237
0.96767
0.966622
0.965954
0.964661
0.963119
0.961422
0.959893
0.958637
0.957764
0.957317
0.957318
0.957769
0.958644
0.959903
0.961431
0.963127
0.964668
0.965958
0.966625
0.967672
0.96819
0.966996
0.966256
0.964826
0.96307
0.961151
0.959429
0.958013
0.957026
0.956517
0.956518
0.957029
0.958018
0.959436
0.961159
0.963078
0.964832
0.966261
0.967
0.968193
0.968849
0.967492
0.966641
0.965024
0.963005
0.960829
0.958888
0.957296
0.956183
0.955608
0.955609
0.956185
0.957299
0.958893
0.960835
0.963012
0.965031
0.966646
0.967496
0.968853
0.969671
0.968137
0.967161
0.965317
0.962967
0.960474
0.958277
0.956487
0.955236
0.95459
0.95459
0.955237
0.956489
0.95828
0.960478
0.962973
0.965323
0.967167
0.968142
0.969677
0.970602
0.96889
0.96783
0.965757
0.963013
0.960115
0.957604
0.955588
0.954187
0.953464
0.953464
0.954187
0.955589
0.957605
0.960118
0.963017
0.965762
0.967835
0.968897
0.970609
0.971608
0.96972
0.968632
0.966358
0.963177
0.959779
0.956879
0.954598
0.953034
0.952232
0.952232
0.953034
0.954598
0.95688
0.95978
0.963179
0.966361
0.968636
0.969727
0.971615
0.972853
0.970766
0.969626
0.967109
0.96345
0.95947
0.956106
0.953511
0.95177
0.950888
0.950888
0.95177
0.953512
0.956107
0.959471
0.963452
0.967113
0.96963
0.97077
0.972858
0.974999
0.97262
0.97119
0.968117
0.963796
0.95914
0.95526
0.952314
0.95038
0.949417
0.949417
0.950381
0.952316
0.955261
0.959141
0.963799
0.968122
0.971192
0.972621
0.975001
0.979515
0.97663
0.974231
0.969741
0.964284
0.958688
0.95427
0.950984
0.948846
0.947791
0.947791
0.948848
0.950986
0.954273
0.958691
0.964288
0.969747
0.974231
0.976626
0.979511
0.990037
0.986197
0.981183
0.973092
0.965178
0.958045
0.953048
0.949482
0.947146
0.94598
0.94598
0.947148
0.949485
0.953053
0.958051
0.965182
0.973098
0.981179
0.986188
0.990029
1.01548
1.00961
0.997959
0.981134
0.967356
0.957419
0.951574
0.947748
0.945246
0.943963
0.943964
0.945249
0.947752
0.951581
0.957425
0.96736
0.981136
0.997953
1.00959
1.01546
1.07943
1.06874
1.04005
1.00131
0.972845
0.957365
0.949976
0.945724
0.9431
0.941739
0.941741
0.943104
0.94573
0.949983
0.957371
0.972847
1.0013
1.04004
1.06873
1.07942
1.23236
1.21345
1.14931
1.05263
0.986948
0.959138
0.948645
0.943448
0.940685
0.93931
0.939312
0.94069
0.943454
0.948652
0.959142
0.986947
1.05262
1.14931
1.21344
1.23235
1.47423
1.45015
1.35553
1.17091
1.02296
0.965632
0.948253
0.941128
0.938045
0.936671
0.936672
0.938049
0.941134
0.948259
0.965635
1.02296
1.1709
1.35552
1.45013
1.4742
1.71884
1.69504
1.59765
1.35812
1.10243
0.982538
0.949919
0.939144
0.935284
0.933821
0.933822
0.935288
0.939149
0.949924
0.982539
1.10243
1.35811
1.59763
1.69501
1.7188
1.87933
1.86055
1.78872
1.56008
1.22669
1.01819
0.955536
0.937972
0.932529
0.930762
0.930764
0.932532
0.937976
0.955539
1.01819
1.22668
1.56006
1.78869
1.8605
1.87929
1.94911
1.93447
1.88758
1.71629
1.368
1.07467
0.966668
0.938108
0.929894
0.927478
0.927479
0.929897
0.938111
0.966669
1.07466
1.36798
1.71625
1.88754
1.93444
1.94908
1.97893
1.96596
1.92973
1.80328
1.49136
1.14346
0.983943
0.939978
0.927467
0.923929
0.923929
0.927468
0.939977
0.983939
1.14345
1.49133
1.80324
1.9297
1.96594
1.97892
1.99287
1.98031
1.94776
1.84215
1.57393
1.21091
1.00596
0.943322
0.925259
0.920078
0.920078
0.925258
0.943318
1.00595
1.2109
1.5739
1.84211
1.94775
1.98032
1.99288
2.00042
1.98741
1.95389
1.85352
1.61425
1.26573
1.02929
0.947229
0.923145
0.915947
0.915946
0.923143
0.947223
1.02928
1.26571
1.61422
1.85349
1.95389
1.98743
2.00044
2.00554
1.9915
1.95352
1.84737
1.62457
1.30238
1.05047
0.950939
0.920988
0.911618
0.911617
0.920984
0.950931
1.05046
1.30235
1.62454
1.84735
1.95353
1.99153
2.00557
2.00948
1.99407
1.94859
1.82892
1.61569
1.32062
1.06691
0.954037
0.918718
0.907215
0.907214
0.918713
0.954028
1.0669
1.3206
1.61567
1.82891
1.94861
1.9941
2.0095
2.01235
1.99552
1.94033
1.80234
1.59333
1.32301
1.07738
0.95623
0.916288
0.902852
0.902851
0.916284
0.956222
1.07736
1.32299
1.59331
1.80234
1.94035
1.99555
2.01236
2.0141
1.99567
1.92954
1.77169
1.56171
1.3131
1.08174
0.957271
0.913636
0.898604
0.898603
0.913631
0.957262
1.08172
1.31307
1.5617
1.7717
1.92956
1.99568
2.01411
2.01518
1.99468
1.91712
1.73973
1.52442
1.29407
1.08053
0.95696
0.910735
0.894547
0.894545
0.91073
0.956951
1.08051
1.29406
1.52442
1.73975
1.91714
1.99469
2.01518
2.01577
1.99281
1.9038
1.70772
1.48422
1.26877
1.07454
0.95522
0.907646
0.890745
0.890743
0.907641
0.955211
1.07452
1.26876
1.48423
1.70775
1.90382
1.99282
2.01578
2.01569
1.99033
1.89017
1.67602
1.44323
1.23961
1.06469
0.952193
0.904448
0.887219
0.887217
0.904443
0.952184
1.06468
1.2396
1.44324
1.67605
1.8902
1.99036
2.01572
2.01511
1.98768
1.87683
1.6451
1.40291
1.20861
1.05198
0.94808
0.901247
0.883973
0.883972
0.901242
0.948072
1.05197
1.2086
1.40292
1.64514
1.87687
1.98773
2.01517
2.01537
1.98586
1.86453
1.61551
1.36405
1.17708
1.03746
0.943227
0.898069
0.881015
0.881013
0.898064
0.94322
1.03746
1.17708
1.36407
1.61554
1.86457
1.98592
2.01544
2.01646
1.98612
1.85419
1.58796
1.3271
1.14607
1.0221
0.937816
0.895064
0.878369
0.878367
0.895061
0.937811
1.0221
1.14607
1.32712
1.58799
1.85422
1.98617
2.01651
2.01924
1.98663
1.8459
1.5636
1.29273
1.11676
1.00669
0.932153
0.89224
0.876091
0.87609
0.892238
0.93215
1.00669
1.11677
1.29275
1.56361
1.84591
1.98663
2.01924
2.01841
1.98649
1.84018
1.54313
1.26228
1.0905
0.992157
0.926314
0.889647
0.874174
0.874173
0.889645
0.926314
0.992163
1.09052
1.26229
1.54314
1.84017
1.98644
2.01836
2.01229
1.98395
1.83694
1.52785
1.237
1.06824
0.978944
0.920506
0.887227
0.872619
0.872619
0.887227
0.920509
0.978953
1.06825
1.23701
1.52785
1.83691
1.98387
2.01218
2.00376
1.98054
1.83605
1.51796
1.21759
1.05017
0.967279
0.91488
0.884922
0.871326
0.871326
0.884923
0.914885
0.96729
1.05018
1.2176
1.51795
1.83601
1.98046
2.00365
1.99742
1.978
1.83763
1.51373
1.20398
1.03587
0.957165
0.909569
0.882645
0.870143
0.870144
0.882648
0.909575
0.957178
1.03589
1.20399
1.51372
1.83759
1.97793
1.99733
1.997
1.97912
1.84315
1.51537
1.1957
1.0248
0.948517
0.904639
0.880329
0.868906
0.868908
0.880333
0.904647
0.948531
1.02482
1.19571
1.51537
1.84313
1.97907
1.99694
2.00343
1.98581
1.85386
1.52258
1.19214
1.01649
0.941221
0.90013
0.877951
0.867517
0.867519
0.877956
0.900138
0.941233
1.0165
1.19214
1.52258
1.85385
1.98579
2.0034
2.01421
1.9965
1.86804
1.53471
1.19275
1.01061
0.935175
0.896059
0.875548
0.86598
0.865981
0.875552
0.896067
0.935185
1.01062
1.19276
1.53472
1.86804
1.9965
2.0142
2.02784
2.00999
1.88437
1.55115
1.19714
1.00695
0.930296
0.892445
0.8732
0.864384
0.864386
0.873204
0.892451
0.930303
1.00696
1.19714
1.55115
1.88438
2.01
2.02785
2.04322
2.02512
1.90219
1.57097
1.20521
1.00547
0.926545
0.889321
0.870995
0.862823
0.862824
0.870997
0.889324
0.926547
1.00547
1.20521
1.57097
1.90221
2.02515
2.04325
2.05888
2.04051
1.92057
1.59361
1.21721
1.00616
0.923913
0.886724
0.868981
0.861315
0.861315
0.868982
0.886724
0.923912
1.00616
1.21721
1.59362
1.92058
2.04054
2.05892
2.07339
2.05473
1.93829
1.61897
1.2332
1.00902
0.922377
0.884659
0.867157
0.859823
0.859823
0.867157
0.884657
0.922373
1.00901
1.2332
1.61897
1.9383
2.05476
2.07344
2.08342
2.06414
1.95404
1.64789
1.2535
1.01405
0.921865
0.883089
0.865512
0.858328
0.858328
0.865511
0.883086
0.921859
1.01404
1.2535
1.64789
1.95405
2.06417
2.08345
2.08385
2.06606
1.96765
1.68102
1.27897
1.02156
0.922328
0.881976
0.864053
0.856874
0.856874
0.864052
0.881973
0.922323
1.02155
1.27896
1.68101
1.96764
2.06607
2.08386
2.07601
2.06263
1.9801
1.71791
1.31119
1.03246
0.923879
0.881348
0.862794
0.855501
0.855501
0.862792
0.881346
0.923874
1.03246
1.31119
1.7179
1.98009
2.06263
2.07601
2.06657
2.05869
1.9926
1.7579
1.35215
1.04862
0.926969
0.881335
0.861725
0.854159
0.854159
0.861724
0.881333
0.926965
1.04862
1.35215
1.75789
1.99259
2.05868
2.06657
2.06149
2.05837
2.00583
1.79984
1.40303
1.07256
0.932625
0.882185
0.860847
0.852737
0.852737
0.860846
0.882184
0.932624
1.07257
1.40303
1.79983
2.00582
2.05837
2.06149
2.06155
2.06206
2.01993
1.84438
1.46462
1.10678
0.94227
0.884277
0.860214
0.851184
0.851184
0.860214
0.884277
0.942271
1.10678
1.46461
1.84437
2.01992
2.06206
2.06156
2.06468
2.06758
2.03394
1.88989
1.53686
1.15348
0.957105
0.88791
0.859923
0.849569
0.84957
0.859924
0.887911
0.957107
1.15348
1.53685
1.88988
2.03394
2.06758
2.06468
2.06831
2.07335
2.04675
1.93285
1.61785
1.21499
0.978451
0.893181
0.859989
0.847867
0.847868
0.859989
0.893182
0.978452
1.21499
1.61785
1.93284
2.04675
2.07335
2.06831
2.07103
2.07803
2.05745
1.9706
1.70374
1.2944
1.00944
0.900678
0.860497
0.845743
0.845743
0.860498
0.900679
1.00944
1.2944
1.70374
1.97059
2.05745
2.07803
2.07103
2.07293
2.08122
2.06599
2.00182
1.78883
1.3938
1.05647
0.912415
0.861622
0.842697
0.842697
0.861622
0.912415
1.05647
1.3938
1.78883
2.00181
2.06599
2.08122
2.07293
2.0744
2.08338
2.0732
2.02657
1.86779
1.51142
1.12839
0.9327
0.864184
0.838927
0.838927
0.864185
0.932699
1.12839
1.51142
1.86779
2.02657
2.0732
2.08338
2.0744
2.07553
2.08499
2.07916
2.04539
1.93426
1.63941
1.23331
0.968505
0.869751
0.835492
0.835492
0.869751
0.968504
1.23331
1.63941
1.93426
2.04539
2.07916
2.08499
2.07553
2.07651
2.08623
2.08354
2.05942
1.98318
1.76428
1.37415
1.03252
0.883197
0.834475
0.834475
0.883196
1.03252
1.37414
1.76428
1.98319
2.05942
2.08354
2.08623
2.07651
2.07776
2.08719
2.08662
2.06923
2.01516
1.87189
1.54358
1.14775
0.91605
0.839297
0.839297
0.916049
1.14775
1.54358
1.87189
2.01516
2.06923
2.08662
2.08719
2.07776
2.07967
2.08816
2.089
2.07571
2.03568
1.94932
1.71753
1.3278
0.998913
0.861743
0.861743
0.998912
1.3278
1.71754
1.94932
2.03568
2.07571
2.089
2.08816
2.07966
2.08245
2.08955
2.09107
2.08031
2.04923
1.99548
1.86014
1.55157
1.18187
0.946038
0.946038
1.18187
1.55157
1.86014
1.99548
2.04923
2.08031
2.09107
2.08955
2.08245
2.08611
2.09155
2.09285
2.0838
2.05806
2.02063
1.9488
1.76312
1.45743
1.18979
1.18979
1.45743
1.76312
1.9488
2.02063
2.05806
2.0838
2.09285
2.09155
2.08611
2.09047
2.09422
2.09426
2.08622
2.06434
2.03513
1.99311
1.90369
1.73089
1.5502
1.5502
1.73089
1.90369
1.99311
2.03513
2.06434
2.08623
2.09426
2.09422
2.09047
2.09529
2.09756
2.09542
2.08742
2.06937
2.04478
2.01463
1.97065
1.90074
1.82566
1.82566
1.90074
1.97065
2.01463
2.04478
2.06937
2.08742
2.09542
2.09756
2.09528
2.10035
2.10147
2.0969
2.08772
2.0729
2.05233
2.0275
2.00093
1.96972
1.94207
1.94207
1.96972
2.00093
2.0275
2.05233
2.0729
2.08772
2.0969
2.10147
2.10035
2.10538
2.10587
2.09933
2.08785
2.07445
2.05818
2.03734
2.01742
1.99969
1.98757
1.98757
1.99969
2.01742
2.03734
2.05818
2.07445
2.08785
2.09933
2.10587
2.10538
2.11008
2.11048
2.10292
2.08864
2.07477
2.06162
2.04522
2.02901
2.01586
2.00809
2.00809
2.01586
2.02901
2.04522
2.06162
2.07477
2.08864
2.10292
2.11048
2.11008
2.11426
2.11491
2.10711
2.09091
2.07533
2.06308
2.05032
2.03772
2.02702
2.02087
2.02087
2.02702
2.03772
2.05032
2.06308
2.07533
2.09091
2.10711
2.11491
2.11426
2.11784
2.11881
2.11125
2.09461
2.07745
2.06419
2.05329
2.04365
2.03547
2.03044
2.03044
2.03547
2.04365
2.05329
2.06418
2.07745
2.09461
2.11125
2.11881
2.11784
2.12081
2.12199
2.11499
2.09911
2.08145
2.06644
2.05558
2.04728
2.04113
2.03748
2.03748
2.04113
2.04728
2.05558
2.06644
2.08145
2.09911
2.11499
2.12199
2.12081
2.12315
2.12441
2.11812
2.10375
2.08681
2.07097
2.05866
2.05027
2.04501
2.04236
2.04236
2.04501
2.05027
2.05866
2.07097
2.08681
2.10375
2.11812
2.12441
2.12315
2.1249
2.12612
2.12054
2.10806
2.09271
2.07717
2.06385
2.05449
2.04895
2.04654
2.04654
2.04895
2.05449
2.06385
2.07717
2.09271
2.10806
2.12054
2.12612
2.1249
2.12611
2.12723
2.12227
2.11177
2.09838
2.08406
2.07096
2.06116
2.0546
2.05178
2.05178
2.0546
2.06116
2.07096
2.08406
2.09838
2.11177
2.12227
2.12723
2.12611
2.12686
2.12787
2.12348
2.11476
2.1033
2.09072
2.07874
2.06928
2.06269
2.05932
2.05932
2.06269
2.06928
2.07874
2.09072
2.1033
2.11476
2.12348
2.12787
2.12686
2.12724
2.12813
2.12429
2.1171
2.10732
2.09659
2.08617
2.07768
2.07162
2.06847
2.06847
2.07162
2.07768
2.08617
2.09659
2.10732
2.1171
2.12429
2.12813
2.12724
2.12731
2.12809
2.12478
2.11886
2.11049
2.10148
2.09273
2.08552
2.08029
2.07755
2.07755
2.08029
2.08552
2.09273
2.10148
2.11049
2.11886
2.12478
2.12809
2.12731
2.12708
2.12779
2.12496
2.12012
2.11298
2.10548
2.09827
2.09232
2.08796
2.08569
2.08569
2.08796
2.09232
2.09827
2.10548
2.11298
2.12012
2.12496
2.12779
2.12708
2.12657
2.12723
2.12483
2.12094
2.11497
2.10877
2.10285
2.09796
2.09435
2.09247
2.09247
2.09435
2.09796
2.10285
2.10877
2.11497
2.12094
2.12483
2.12723
2.12657
2.12577
2.12643
2.12443
2.12137
2.11653
2.11149
2.10661