# vtk DataFile Version 3.0
Grid data
ASCII
DATASET STRUCTURED_POINTS
DIMENSIONS 20 200 1
ORIGIN 0 0 0
SPACING 0.0125 0.005 1
POINT_DATA 4000
SCALARS rho double
LOOKUP_TABLE default
0.975538
0.975346
0.975
0.97463
0.974744
0.975106
0.975575
0.976081
0.976473
0.976663
0.976656
0.976457
0.976066
0.975565
0.975102
0.974742
0.974625
0.975011
0.975373
0.9756
0.973005
0.97295
0.973172
0.973776
0.974362
0.974933
0.975406
0.975776
0.976017
0.976098
0.976094
0.976008
0.975766
0.975399
0.97493
0.974361
0.973774
0.973179
0.972974
0.973043
0.972352
0.972479
0.973049
0.973812
0.974528
0.975208
0.975734
0.976092
0.976278
0.976319
0.976315
0.976268
0.976081
0.975727
0.975204
0.974527
0.973813
0.973056
0.972494
0.972372
0.97207
0.972284
0.973052
0.974128
0.975114
0.97592
0.976485
0.976769
0.976857
0.976849
0.976846
0.97685
0.976761
0.97648
0.975916
0.975112
0.974129
0.973059
0.972298
0.972087
0.972114
0.972444
0.973401
0.974642
0.975811
0.976733
0.977332
0.97757
0.97761
0.977584
0.977582
0.977604
0.977564
0.977326
0.97673
0.975809
0.974643
0.973406
0.972453
0.972123
0.972042
0.972509
0.973662
0.975063
0.976423
0.977443
0.978057
0.978282
0.978318
0.978302
0.9783
0.978313
0.978276
0.978052
0.97744
0.976421
0.975063
0.973665
0.972514
0.972047
0.971874
0.972483
0.973787
0.975312
0.976775
0.977838
0.978458
0.978708
0.978784
0.978801
0.978799
0.97878
0.978702
0.978452
0.977834
0.976773
0.975311
0.973788
0.972484
0.971874
0.971623
0.972342
0.973717
0.97532
0.97682
0.977887
0.978532
0.978856
0.979009
0.979071
0.97907
0.979005
0.97885
0.978526
0.977883
0.976817
0.975318
0.973714
0.97234
0.971621
0.971373
0.972159
0.973519
0.975124
0.976596
0.977645
0.978329
0.978745
0.978986
0.979099
0.979098
0.978983
0.97874
0.978323
0.977641
0.976592
0.97512
0.973514
0.972154
0.971367
0.971139
0.971971
0.973223
0.974738
0.976125
0.977141
0.977855
0.978342
0.978653
0.978805
0.978804
0.97865
0.978338
0.97785
0.977136
0.976121
0.974732
0.973216
0.971964
0.97113
0.970861
0.971724
0.972797
0.974129
0.975369
0.976325
0.977054
0.977591
0.977951
0.978132
0.978131
0.977948
0.977588
0.97705
0.97632
0.975364
0.974123
0.972789
0.971716
0.970851
0.970441
0.971287
0.972151
0.973256
0.974328
0.975232
0.975997
0.976599
0.977012
0.97722
0.977219
0.977011
0.976597
0.975994
0.975229
0.974323
0.97325
0.972144
0.97128
0.970433
0.969892
0.970658
0.971306
0.972196
0.973139
0.974039
0.974881
0.975577
0.976057
0.976294
0.976293
0.976057
0.975578
0.974882
0.974038
0.973134
0.972188
0.971299
0.970651
0.969885
0.96937
0.970001
0.970426
0.971122
0.971989
0.972934
0.973874
0.974665
0.975209
0.975473
0.975474
0.975211
0.974668
0.973876
0.972933
0.971984
0.971114
0.970417
0.969993
0.969361
0.969069
0.969535
0.969725
0.970228
0.971021
0.972003
0.973011
0.973866
0.974455
0.974741
0.974741
0.974457
0.973869
0.973013
0.972003
0.971017
0.97022
0.969715
0.969525
0.969058
0.969105
0.969396
0.969362
0.969653
0.970318
0.971271
0.972289
0.973168
0.973784
0.974087
0.974088
0.973786
0.97317
0.972291
0.971271
0.970315
0.969647
0.969352
0.969385
0.969093
0.96948
0.969608
0.969385
0.969466
0.969946
0.970798
0.971774
0.972653
0.973292
0.973617
0.973618
0.973294
0.972655
0.971776
0.970799
0.969945
0.969462
0.969378
0.969599
0.969469
0.970159
0.970148
0.969785
0.969694
0.96998
0.970696
0.971603
0.972475
0.973142
0.973495
0.973496
0.973143
0.972476
0.971604
0.970697
0.96998
0.969692
0.969782
0.970143
0.970152
0.971134
0.971015
0.97055
0.970334
0.970459
0.971038
0.971869
0.972729
0.973425
0.973811
0.973811
0.973426
0.97273
0.97187
0.971039
0.970459
0.970334
0.970549
0.971012
0.971131
0.972397
0.972198
0.97166
0.971348
0.971342
0.971789
0.972531
0.973364
0.974075
0.974485
0.974486
0.974075
0.973364
0.972532
0.97179
0.971343
0.971348
0.97166
0.972198
0.972397
0.973863
0.973621
0.973046
0.972655
0.972534
0.972844
0.973477
0.974257
0.974961
0.97538
0.97538
0.974961
0.974258
0.973477
0.972845
0.972534
0.972655
0.973045
0.973621
0.973863
0.975407
0.975157
0.974585
0.974134
0.97391
0.974081
0.974584
0.97529
0.975962
0.976372
0.976372
0.975962
0.97529
0.974585
0.974081
0.97391
0.974134
0.974585
0.975157
0.975407
0.976915
0.976678
0.976139
0.975647
0.975333
0.975371
0.975738
0.976353
0.976975
0.977362
0.977362
0.976976
0.976354
0.975738
0.975372
0.975333
0.975647
0.976139
0.976678
0.976915
0.978295
0.978082
0.977587
0.977067
0.976677
0.976595
0.976825
0.977342
0.977903
0.978257
0.978258
0.977904
0.977343
0.976826
0.976595
0.976677
0.977067
0.977587
0.978082
0.978296
0.979495
0.979307
0.978859
0.978318
0.97786
0.977667
0.977764
0.978174
0.978663
0.978978
0.978979
0.978664
0.978174
0.977765
0.977667
0.977861
0.978318
0.978859
0.979307
0.979495
0.980499
0.98034
0.97994
0.979388
0.978871
0.978572
0.978535
0.978823
0.979226
0.979492
0.979493
0.979226
0.978823
0.978536
0.978572
0.978871
0.979388
0.97994
0.980341
0.9805
0.981326
0.981199
0.980854
0.98031
0.979747
0.97935
0.979179
0.979326
0.979621
0.979827
0.979827
0.979622
0.979326
0.979179
0.979351
0.979748
0.98031
0.980854
0.9812
0.981327
0.982007
0.981915
0.981632
0.981119
0.980533
0.980051
0.979748
0.979741
0.979909
0.980042
0.980042
0.979909
0.979741
0.979748
0.980052
0.980533
0.98112
0.981633
0.981915
0.982007
0.982576
0.982517
0.982301
0.981835
0.981246
0.980698
0.980274
0.980106
0.980135
0.980185
0.980186
0.980135
0.980107
0.980274
0.980699
0.981246
0.981836
0.982301
0.982518
0.982576
0.983063
0.983034
0.982876
0.982464
0.981887
0.981289
0.980758
0.980434
0.980315
0.980281
0.980281
0.980315
0.980434
0.980758
0.98129
0.981888
0.982465
0.982876
0.983035
0.983063
0.983494
0.98349
0.983376
0.983015
0.982457
0.98182
0.981194
0.980721
0.980454
0.980336
0.980336
0.980454
0.980721
0.981194
0.98182
0.982457
0.983015
0.983377
0.98349
0.983495
0.983892
0.983905
0.983822
0.983503
0.982964
0.982293
0.981581
0.980968
0.980557
0.980356
0.980356
0.980557
0.980968
0.981581
0.982293
0.982964
0.983503
0.983822
0.983905
0.983892
0.984266
0.984291
0.984228
0.983942
0.983421
0.98272
0.981926
0.981183
0.980635
0.980354
0.980354
0.980635
0.981183
0.981926
0.98272
0.983421
0.983942
0.984228
0.984291
0.984266
0.984613
0.984647
0.984596
0.984337
0.983833
0.983104
0.982235
0.981373
0.980699
0.980342
0.980342
0.980699
0.981373
0.982235
0.983104
0.983833
0.984337
0.984596
0.984647
0.984613
0.984923
0.984962
0.984918
0.984681
0.984193
0.983443
0.982508
0.98154
0.980752
0.980324
0.980324
0.980752
0.98154
0.982508
0.983443
0.984193
0.984681
0.984918
0.984962
0.984924
0.985186
0.985225
0.985185
0.984965
0.984494
0.983731
0.98274
0.981681
0.980793
0.9803
0.9803
0.980793
0.981681
0.98274
0.983731
0.984494
0.984965
0.985185
0.985225
0.985186
0.985399
0.985436
0.985393
0.985186
0.984732
0.983964
0.982931
0.981797
0.980822
0.98027
0.98027
0.980822
0.981797
0.982931
0.983964
0.984732
0.985186
0.985393
0.985436
0.985399
0.985571
0.985602
0.985552
0.98535
0.984911
0.984146
0.983084
0.98189
0.980842
0.980238
0.980238
0.980842
0.98189
0.983084
0.984146
0.984911
0.98535
0.985552
0.985602
0.985571
0.985716
0.985737
0.985673
0.98547
0.985042
0.984285
0.983205
0.981966
0.980861
0.980214
0.980214
0.980861
0.981966
0.983205
0.984285
0.985042
0.98547
0.985673
0.985737
0.985716
0.985845
0.985852
0.985771
0.98556
0.985136
0.984388
0.9833
0.982031
0.980886
0.980208
0.980208
0.980886
0.982031
0.9833
0.984388
0.985136
0.98556
0.985771
0.985852
0.985845
0.985963
0.985954
0.985852
0.985627
0.985201
0.984459
0.98337
0.982087
0.98092
0.980223
0.980223
0.98092
0.982087
0.98337
0.984459
0.985201
0.985627
0.985852
0.985954
0.985963
0.986068
0.986043
0.985919
0.985675
0.985238
0.984499
0.983415
0.982133
0.980962
0.980261
0.980261
0.980962
0.982133
0.983415
0.984499
0.985238
0.985675
0.985919
0.986043
0.986067
0.986153
0.986113
0.985968
0.985702
0.985248
0.984508
0.983434
0.982166
0.981009
0.980317
0.980317
0.981009
0.982166
0.983434
0.984508
0.985248
0.985702
0.985968
0.986113
0.986153
0.986213
0.986161
0.985996
0.985705
0.985231
0.984487
0.983427
0.982186
0.981056
0.980384
0.980384
0.981056
0.982186
0.983427
0.984487
0.985231
0.985705
0.985996
0.986161
0.986213
0.986246
0.986183
0.986
0.985686
0.985187
0.984438
0.983397
0.98219
0.9811
0.980456
0.980456
0.9811
0.98219
0.983397
0.984438
0.985187
0.985686
0.986
0.986183
0.986246
0.986252
0.98618
0.985983
0.985644
0.98512
0.984365
0.983344
0.98218
0.981136
0.980526
0.980526
0.981136
0.98218
0.983344
0.984365
0.98512
0.985644
0.985983
0.98618
0.986252
0.986236
0.986156
0.985945
0.985581
0.985033
0.984271
0.983273
0.982155
0.981164
0.98059
0.98059
0.981164
0.982155
0.983273
0.984271
0.985033
0.985581
0.985945
0.986156
0.986236
0.986202
0.986116
0.985891
0.985502
0.984927
0.984159
0.983185
0.982116
0.981181
0.980646
0.980646
0.981181
0.982116
0.983185
0.984159
0.984927
0.985502
0.985891
0.986116
0.986202
0.986157
0.986063
0.985822
0.985407
0.984806
0.984031
0.983082
0.982065
0.981188
0.980693
0.980693
0.981188
0.982065
0.983082
0.984031
0.984806
0.985407
0.985822
0.986063
0.986157
0.986103
0.986
0.985742
0.985298
0.984671
0.98389
0.982967
0.982004
0.981189
0.980735
0.980735
0.981189
0.982004
0.982967
0.98389
0.984671
0.985298
0.985742
0.986
0.986103
0.986042
0.985929
0.985651
0.985179
0.984527
0.983741
0.982846
0.981939
0.981186
0.980773
0.980773
0.981186
0.981939
0.982846
0.983741
0.984527
0.985179
0.985651
0.985929
0.986042
0.985974
0.98585
0.985551
0.985051
0.984376
0.983587
0.982722
0.981872
0.981184
0.980813
0.980813
0.981184
0.981872
0.982722
0.983587
0.984376
0.985051
0.985551
0.98585
0.985974
0.985898
0.985762
0.985443
0.984917
0.984222
0.983433
0.982598
0.981807
0.981184
0.980856
0.980856
0.981184
0.981807
0.982598
0.983433
0.984222
0.984917
0.985443
0.985762
0.985898
0.985815
0.985666
0.985328
0.98478
0.984068
0.983281
0.982478
0.981745
0.981187
0.9809
0.9809
0.981187
0.981745
0.982478
0.983281
0.984068
0.98478
0.985328
0.985666
0.985815
0.985723
0.985563
0.985208
0.98464
0.983915
0.983133
0.982361
0.981686
0.981192
0.980945
0.980945
0.981192
0.981686
0.982361
0.983133
0.983915
0.98464
0.985208
0.985563
0.985723
0.985625
0.985454
0.985085
0.984499
0.983764
0.982988
0.982248
0.981629
0.981195
0.980985
0.980985
0.981195
0.981629
0.982248
0.982988
0.983764
0.984499
0.985085
0.985454
0.985625
0.985521
0.98534
0.984957
0.984356
0.983613
0.982845
0.982138
0.981572
0.981193
0.981017
0.981017
0.981193
0.981572
0.982138
0.982845
0.983613
0.984356
0.984957
0.98534
0.985521
0.985412
0.985221
0.984827
0.984212
0.983463
0.982705
0.982029
0.981514
0.981186
0.981041
0.981041
0.981186
0.981514
0.982029
0.982705
0.983463
0.984212
0.984827
0.985221
0.985412
0.985296
0.985096
0.984692
0.984066
0.983314
0.982567
0.981923
0.981455
0.981173
0.981054
0.981054
0.981173
0.981455
0.981923
0.982567
0.983314
0.984066
0.984692
0.985096
0.985296
0.985175
0.984967
0.984553
0.983918
0.983165
0.982431
0.981819
0.981395
0.981155
0.98106
0.98106
0.981155
0.981395
0.981819
0.982431
0.983165
0.983918
0.984553
0.984967
0.985175
0.985048
0.984831
0.98441
0.983768
0.983017
0.982298
0.981717
0.981334
0.981133
0.98106
0.98106
0.981133
0.981334
0.981717
0.982298
0.983017
0.983768
0.98441
0.984831
0.985048
0.984916
0.984692
0.984264
0.983617
0.982871
0.982168
0.981617
0.981274
0.981108
0.981055
0.981055
0.981108
0.981274
0.981617
0.982168
0.982871
0.983617
0.984264
0.984692
0.984916
0.984781
0.98455
0.984116
0.983466
0.982726
0.982041
0.981519
0.981212
0.98108
0.981046
0.981046
0.98108
0.981212
0.981519
0.982041
0.982726
0.983466
0.984116
0.98455
0.984781
0.984645
0.984407
0.983969
0.983317
0.982584
0.981915
0.981422
0.981149
0.981048
0.981032
0.981032
0.981048
0.981149
0.981422
0.981915
0.982584
0.983317
0.983969
0.984407
0.984645
0.98451
0.984265
0.983823
0.983169
0.982444
0.981791
0.981325
0.981084
0.981011
0.981012
0.981012
0.981011
0.981084
0.981325
0.981791
0.982444
0.983169
0.983823
0.984265
0.98451
0.984377
0.984126
0.98368
0.983025
0.982307
0.981669
0.981227
0.981015
0.980968
0.980985
0.980985
0.980968
0.981015
0.981227
0.981669
0.982307
0.983025
0.98368
0.984126
0.984377
0.984247
0.98399
0.983541
0.982885
0.982172
0.981549
0.981128
0.980943
0.980921
0.980952
0.980952
0.980921
0.980943
0.981128
0.981549
0.982172
0.982885
0.983541
0.98399
0.984247
0.984121
0.983857
0.983405
0.982748
0.982041
0.98143
0.981029
0.980868
0.980868
0.980913
0.980913
0.980868
0.980868
0.981029
0.98143
0.982041
0.982748
0.983405
0.983857
0.984121
0.983997
0.983728
0.983273
0.982615
0.981914
0.981313
0.98093
0.980789
0.98081
0.980868
0.980868
0.98081
0.980789
0.98093
0.981313
0.981914
0.982615
0.983273
0.983728
0.983997
0.983879
0.983602
0.983146
0.982487
0.981789
0.981198
0.98083
0.980708
0.980747
0.980816
0.980816
0.980747
0.980708
0.98083
0.981198
0.981789
0.982487
0.983146
0.983602
0.983879
0.983765
0.983482
0.983023
0.982363
0.981669
0.981085
0.98073
0.980623
0.980677
0.980756
0.980756
0.980677
0.980623
0.98073
0.981085
0.981669
0.982363
0.983023
0.983482
0.983765
0.983657
0.983366
0.982906
0.982244
0.981554
0.980976
0.980631
0.980535
0.9806
0.980686
0.980686
0.9806
0.980535
0.980631
0.980976
0.981554
0.982244
0.982906
0.983366
0.983657
0.983555
0.983257
0.982794
0.98213
0.981444
0.980872
0.980534
0.980444
0.980515
0.980605
0.980605
0.980515
0.980444
0.980534
0.980872
0.981444
0.98213
0.982794
0.983257
0.983555
0.983462
0.983154
0.982688
0.982022
0.981339
0.980771
0.980438
0.98035
0.980422
0.980512
0.980512
0.980422
0.98035
0.980438
0.980771
0.981339
0.982022
0.982688
0.983154
0.983462
0.98338
0.983061
0.982591
0.98192
0.981239
0.980673
0.980342
0.980252
0.98032
0.980406
0.980406
0.98032
0.980252
0.980342
0.980673
0.981239
0.98192
0.982591
0.983061
0.98338
0.983309
0.982978
0.982504
0.981826
0.981143
0.980576
0.980243
0.980147
0.980207
0.980287
0.980287
0.980207
0.980147
0.980243
0.980576
0.981143
0.981826
0.982504
0.982978
0.983309
0.983254
0.982908
0.982429
0.981741
0.981051
0.980478
0.980139
0.980033
0.980083
0.980155
0.980155
0.980083
0.980033
0.980139
0.980478
0.981051
0.981741
0.982429
0.982908
0.983254
0.983215
0.982852
0.982367
0.981666
0.980964
0.980379
0.980028
0.979908
0.979946
0.980011
0.980011
0.979946
0.979908
0.980028
0.980379
0.980964
0.981666
0.982367
0.982852
0.983215
0.983194
0.982811
0.982319
0.9816
0.980883
0.980278
0.979909
0.979772
0.979796
0.979853
0.979853
0.979796
0.979772
0.979909
0.980278
0.980883
0.9816
0.982319
0.982811
0.983194
0.983191
0.982785
0.982283
0.981542
0.980806
0.980176
0.979782
0.979624
0.979633
0.979682
0.979682
0.979633
0.979624
0.979782
0.980176
0.980806
0.981542
0.982283
0.982785
0.983191
0.983209
0.982775
0.982261
0.981493
0.980733
0.980073
0.979649
0.979464
0.979455
0.979496
0.979496
0.979455
0.979464
0.979649
0.980073
0.980733
0.981493
0.982261
0.982775
0.983209
0.98325
0.982782
0.982252
0.981452
0.980664
0.979967
0.979506
0.97929
0.979261
0.979292
0.979292
0.979261
0.97929
0.979506
0.979967
0.980664
0.981452
0.982252
0.982782
0.98325
0.983317
0.982809
0.98226
0.98142
0.980596
0.979856
0.979352
0.9791
0.979047
0.979067
0.979067
0.979047
0.9791
0.979352
0.979856
0.980596
0.98142
0.98226
0.982809
0.983317
0.983415
0.982861
0.982287
0.981398
0.98053
0.979737
0.979185
0.978891
0.978812
0.978819
0.978819
0.978812
0.978891
0.979185
0.979737
0.98053
0.981398
0.982287
0.982861
0.983415
0.983544
0.982936
0.982335
0.981387
0.980465
0.979609
0.979002
0.978662
0.978553
0.978545
0.978545
0.978553
0.978662
0.979002
0.979609
0.980465
0.981387
0.982335
0.982936
0.983544
0.983706
0.983036
0.982404
0.981386
0.980401
0.979473
0.978801
0.97841
0.978267
0.978242
0.978242
0.978267
0.97841
0.978801
0.979473
0.980401
0.981386
0.982404
0.983036
0.983706
0.983907
0.983165
0.982497
0.981397
0.980338
0.979326
0.978583
0.978134
0.977952
0.977908
0.977908
0.977952
0.978134
0.978583
0.979326
0.980338
0.981397
0.982497
0.983165
0.983907
0.984166
0.983338
0.982622
0.981422
0.980275
0.979167
0.978342
0.97783
0.977607
0.977542
0.977542
0.977607
0.97783
0.978342
0.979167
0.980275
0.981422
0.982622
0.983338
0.984166
0.984498
0.983573
0.982795
0.98147
0.980214
0.978989
0.978074
0.977494
0.977226
0.977139
0.977139
0.977226
0.977494
0.978074
0.978989
0.980214
0.98147
0.982795
0.983573
0.984498
0.984895
0.983865
0.983022
0.981555
0.98016
0.978791
0.977773
0.97712
0.976806
0.976696
0.976696
0.976806
0.97712
0.977773
0.978791
0.98016
0.981555
0.983022
0.983865
0.984895
0.985322
0.984183
0.983286
0.981677
0.98012
0.978572
0.977432
0.9767
0.97634
0.976208
0.976208
0.97634
0.9767
0.977432
0.978572
0.98012
0.981677
0.983286
0.984183
0.985322
0.985762
0.984506
0.983558
0.981813
0.980087
0.978332
0.977051
0.976227
0.975821
0.975669
0.975669
0.975821
0.976227
0.977051
0.978332
0.980087
0.981813
0.983558
0.984506
0.985762
0.986312
0.98491
0.983847
0.981926
0.980033
0.978062
0.976624
0.975697
0.975242
0.975074
0.975074
0.975242
0.975697
0.976624
0.978062
0.980033
0.981926
0.983847
0.98491
0.986312
0.987249
0.985636
0.984289
0.982033
0.979914
0.977723
0.976141
0.97511
0.974603
0.974413
0.974413
0.974603
0.97511
0.976141
0.977723
0.979914
0.982033
0.984289
0.985636
0.987249
0.989157
0.987211
0.985236
0.982293
0.979719
0.977265
0.975584
0.974472
0.973904
0.97368
0.97368
0.973904
0.974472
0.975584
0.977265
0.979719
0.982293
0.985236
0.987211
0.989157
0.993275
0.990746
0.987423
0.983088
0.979539
0.976669
0.974934
0.973772
0.973141
0.972874
0.972874
0.973141
0.973772
0.974934
0.976669
0.979539
0.983088
0.987423
0.990746
0.993275
1.00245
0.998824
0.992594
0.985231
0.979631
0.976019
0.974171
0.972969
0.972301
0.971999
0.971999
0.972301
0.972969
0.974171
0.976019
0.979631
0.985231
0.992594
0.998824
1.00245
1.02319
1.0174
1.00484
0.990534
0.980533
0.975537
0.973283
0.972016
0.971364
0.971058
0.971058
0.971364
0.972016
0.973283
0.975537
0.980533
0.990534
1.00484
1.0174
1.02319
1.07192
1.06147
1.0341
1.003
0.983406
0.975586
0.972365
0.970932
0.970312
0.970041
0.970041
0.970312
0.970932
0.972365
0.975586
0.983406
1.003
1.0341
1.06147
1.07192
1.17565
1.15772
1.10199
1.03246
0.990933
0.976793
0.971702
0.969822
0.969156
0.968927
0.968927
0.969156
0.969822
0.971702
0.976793
0.990933
1.03246
1.10199
1.15772
1.17565
1.33026
1.3056
1.21826
1.0911
1.00822
0.98044
0.971713
0.96885
0.967948
0.967704
0.967704
0.967948
0.96885
0.971713
0.98044
1.00822
1.0911
1.21826
1.3056
1.33026
1.49645
1.46769
1.3568
1.17331
1.03757
0.987771
0.972857
0.968181
0.966752
0.966378
0.966378
0.966752
0.968181
0.972857
0.987771
1.03757
1.17331
1.3568
1.46769
1.49645
1.63588
1.60602
1.48402
1.26014
1.07438
0.998214
0.975212
0.96788
0.965603
0.964963
0.964963
0.965603
0.96788
0.975212
0.998214
1.07438
1.26014
1.48402
1.60602
1.63588
1.73108
1.70156
1.57733
1.3336
1.11166
1.0101
0.978306
0.967855
0.964484
0.963465
0.963465
0.964484
0.967855
0.978306
1.0101
1.11166
1.3336
1.57733
1.70156
1.73108
1.79437
1.7645
1.63752
1.38435
1.14267
1.02144
0.98149
0.967909
0.963344
0.961891
0.961891
0.963344
0.967909
0.98149
1.02144
1.14267
1.38435
1.63752
1.7645
1.79437
1.84516
1.81403
1.68044
1.4162
1.16363
1.03043
0.984152
0.967841
0.962131
0.960246
0.960246
0.962131
0.967841
0.984152
1.03043
1.16363
1.4162
1.68044
1.81403
1.84516
1.89133
1.85922
1.7183
1.43966
1.17653
1.03646
0.98595
0.967514
0.960812
0.958537
0.958537
0.960812
0.967514
0.98595
1.03646
1.17653
1.43966
1.7183
1.85922
1.89133
1.93203
1.90014
1.75574
1.4633
1.18694
1.04069
0.987014
0.966915
0.959388
0.95677
0.95677
0.959388
0.966915
0.987014
1.04069
1.18694
1.4633
1.75574
1.90014
1.93203
1.96396
1.93408
1.793
1.49257
1.20012
1.0449
0.987843
0.966174
0.957897
0.954957
0.954957
0.957897
0.966174
0.987843
1.0449
1.20012
1.49257
1.793
1.93408
1.96396
1.98655
1.96017
1.82863
1.52977
1.22041
1.051
0.989051
0.965495
0.956396
0.953109
0.953109
0.956396
0.965495
0.989051
1.051
1.22041
1.52977
1.82863
1.96017
1.98655
2.00202
1.97952
1.86172
1.574
1.25009
1.06099
0.991314
0.965116
0.954951
0.951244
0.951244
0.954951
0.965116
0.991314
1.06099
1.25009
1.574
1.86172
1.97952
2.00202
2.01307
1.99419
1.89191
1.62255
1.28893
1.07618
0.995197
0.965271
0.953634
0.949383
0.949383
0.953634
0.965271
0.995197
1.07618
1.28893
1.62255
1.89191
1.99419
2.01307
2.02156
2.0061
1.91938
1.67222
1.33416
1.0966
1.00094
0.966141
0.952505
0.947523
0.947523
0.952505
0.966141
1.00094
1.0966
1.33416
1.67222
1.91938
2.0061
2.02156
2.02865
2.01685
1.94491
1.72015
1.38157
1.12125
1.00872
0.967841
0.951579
0.945607
0.945607
0.951579
0.967841
1.00872
1.12125
1.38157
1.72015
1.94491
2.01685
2.02865
2.03548
2.02772
1.96905
1.7656
1.42874
1.14917
1.01867
0.970447
0.950848
0.943548
0.943548
0.950848
0.970447
1.01867
1.14917
1.42874
1.7656
1.96905
2.02772
2.03548
2.04269
2.03869
1.9919
1.81102
1.47809
1.18111
1.03112
0.974036
0.950293
0.941277
0.941277
0.950293
0.974036
1.03112
1.18111
1.47809
1.81102
1.9919
2.03869
2.04269
2.04987
2.04886
2.01313
1.85904
1.53619
1.22072
1.04695
0.97874
0.94999
0.938824
0.938824
0.94999
0.97874
1.04695
1.22072
1.53619
1.85904
2.01313
2.04886
2.04987
2.05608
2.0579
2.03205
1.90853
1.60869
1.27373
1.06817
0.984846
0.950096
0.936356
0.936356
0.950096
0.984846
1.06817
1.27373
1.60869
1.90853
2.03205
2.0579
2.05608
2.06107
2.06546
2.0473
1.95476
1.69494
1.34598
1.09885
0.993484
0.95109
0.934223
0.934223
0.95109
0.993484
1.09885
1.34598
1.69494
1.95476
2.0473
2.06546
2.06107
2.06476
2.07087
2.0578
1.99255
1.78781
1.44296
1.14734
1.0078
0.953922
0.932853
0.932853
0.953922
1.0078
1.14734
1.44296
1.78781
1.99255
2.0578
2.07087
2.06476
2.06689
2.07315
2.06399
2.01945
1.87596
1.56665
1.22847
1.03507
0.96076
0.933057
0.933057
0.96076
1.03507
1.22847
1.56665
1.87596
2.01945
2.06399
2.07315
2.06689
2.0677
2.07349
2.06697
2.03709
1.94875
1.70768
1.35466
1.08918
0.976091
0.93639
0.93639
0.976091
1.08918
1.35466
1.70768
1.94875
2.03709
2.06697
2.07349
2.0677
2.06797
2.07295
2.06776
2.04899
1.99913
1.84079
1.51979
1.19293
1.01114
0.94766
0.94766
1.01114
1.19293
1.51979
1.84079
1.99913
2.04899
2.06776
2.07295
2.06797
2.06827
2.07213
2.06748
2.05666
2.02897
1.94073
1.69846
1.35866
1.09385
0.980055
0.980055
1.09385
1.35866
1.69846
1.94073
2.02897
2.05666
2.06748
2.07213
2.06827
2.06855
2.07142
2.06721
2.06105
2.04551
1.99942
1.85334
1.56657
1.26447
1.07602
1.07602
1.26447
1.56657
1.85334
1.99942
2.04551
2.06105
2.06721
2.07142
2.06855
2.06855
2.07095
2.0672
2.06335
2.05382
2.02856
1.9558
1.77086
1.51183
1.30532
1.30532
1.51183
1.77086
1.9558
2.02856
2.05382
2.06335
2.0672
2.07095
2.06855
2.06842
2.07052
2.06709
2.06434
2.05747
2.0427
2.00845
1.91946
1.76126
1.61368
1.61368
1.76126
1.91946
2.00845
2.0427
2.05747
2.06434
2.06709
2.07052
2.06842
2.06815
2.06999
2.06685
2.06467
2.05908
2.04989
2.03272
1.99487
1.92867
1.86165
1.86165
1.92867
1.99487
2.03272
2.04989
2.05908
2.06467
2.06685
2.06999
2.06815
2.0677
2.06938
2.06662
2.06489
2.06007
2.05384
2.04431
2.02729
2.00155
1.97784
1.97784
2.00155
2.02729
2.04431
2.05384
2.06007
2.06489
2.06662
2.06938
2.0677
2.06717
2.06874
2.0665
2.06525
2.06104
2.05641
2.0505
2.04217
2.03139
2.02236
2.02236
2.03139
2.04217
2.0505
2.05641
2.06104
2.06525
2.0665
2.06874
2.06717
2.06665
2.06814
2.06641
2.06569
2.06211
2.05855
2.0545
2.04989
2.04452
2.04046
2.04046
2.04452
2.04989
2.0545
2.05855
2.06211
2.06569
2.06641
2.06814
2.06665
2.06616
2.06759
2.06629
2.06602
2.06315
2.06064
2.05766
2.05454
2.05136
2.04934
2.04934
2.05136
2.05454
2.05766
2.06064
2.06315
2.06602
2.06629
2.06759
2.06616
2.0657
2.06711
2.06615
2.06617
2.06407
2.06261
2.06049
2.05812
2.05576
2.05434
2.05434
2.05576
2.05812
2.06049
2.06261
2.06407
2.06617
2.06615
2.06711
2.0657
2.06523
2.06669
2.06604
2.06626
2.0649
2.06432
2.06301
2.06127
2.05938
2.05822
2.05822
2.05938
2.06127
2.06301
2.06432
2.0649
2.06626
2.06604
2.06669
2.06523
2.06475
2.06632
2.06599
2.06644
2.06577
2.0658
2.06517
2.06407
2.06266
2.06171
2.06171
2.06266
2.06407
2.06517
2.0658
2.06577
2.06644
2.06599
2.06632
2.06475
2.06423
2.06598
2.06601
2.0668
2.0668
2.06722
2.06704
2.06644
2.06549
2.06483
2.06483
2.06549
2.06644
2.06704
2.06722
2.0668
2.0668
2.06601
2.06598
2.06423
2.06372
2.06565
2.06612
2.06734
2.06798
2.06868
2.06873
2.0684
2.06778
2.06735
2.06735
2.06778
2.0684
2.06873
2.06868
2.06798
2.06734
2.06612
2.06565
2.06372
2.06327
2.06537
2.06634
2.06801
2.0692
2.07013
2.0703
2.07008
2.06959
2.06927
2.06927
2.06959
2.07008
2.0703
2.07013
2.0692
2.06801
2.06634
2.06537
2.06327
2.06299
2.06516
2.06667
2.06876
2.07033
2.07144
2.07172
2.07156
2.07112
2.07081
2.07081
2.07112
2.07156
2.07172
2.07144
2.07033
2.06876
2.06667
2.06516
2.06299
2.06295
2.06511
2.0671
2.06953
2.07136
2.07259
2.07295
2.07286
2.07246
2.07214
2.07214
2.07246
2.07286
2.07295
2.07259
2.07136
2.06953
2.0671
2.06511
2.06295
2.06325
2.06531
2.06764
2.07032
2.0723
2.07359
2.07402
2.07401
2.07366
2.07334
2.07334
2.07366
2.07401
2.07402
2.07359
2.0723
2.07032
2.06764
2.06531
2.06325
2.06393
2.06581
2.06834
2.07111
2.07314
2.07445
2.07495
2.075
2.0747
2.0744
2.0744
2.0747
2.075
2.07495
2.07445
2.07314
2.07111
2.06834
2.06581
2.06393
2.06504
2.06669
2.06921
2.07189
2.07387
2.07518
2.07574
2.07584
2.07559
2.07532
2.07532
2.07559
2.07584
2.07574
2.07518
2.07387
2.07189
2.06921
2.06669
2.06504
2.0666
2.06799
2.07029
2.07269
2.07449
2.07576
2.07638
2.07652
2.0763
2.07608
2.07608
2.0763
2.07652
2.07638
2.07576
2.07449
2.07269
2.07029
2.06799
2.0666
2.06855
2.06969
2.07161
2.07354
2.07503
2.07616
2.07678
2.07697
2.07682
2.07665
2.07665
2.07682
2.07697
2.07678
2.07616
2.07503
2.07354
2.07161
2.06969
2.06855
2.07089
2.07175
2.07318
2.07451
2.07551
2.07635
2.07688
2.07712
2.07708
2.07699
2.07699
2.07708
2.07712
2.07688
2.07635
2.07551
2.07451
2.07318
2.07175
2.07089
2.07359
2.07413
2.07496
2.07556
2.07593
2.0763
2.0766
2.07685
2.07697
2.07699
2.07699
2.07697
2.07685
2.0766
2.0763
2.07593
2.07556
2.07496
2.07413
2.07359
2.07663
2.07677
2.07688
2.07663
2.07623
2.07599
2.07592
2.07611
2.07638
2.07655
2.07655
2.07638
2.07611
2.07592
2.07599
2.07623
2.07663
2.07688
2.07677
2.07663
2.07995
2.07961
2.07888
2.07766
2.07635
2.07542
2.0749
2.07496
2.07533
2.07563
2.07563
2.07533
2.07496
2.0749
2.07542
2.07635
2.07766
2.07888
2.07961
2.07995
2.08343
2.08263
2.08099
2.07869
2.07637
2.07466
2.07366
2.07356
2.07397
2.07433
2.07433
2.07397
2.07356
2.07366
2.07466
2.07637
2.07869
2.08099
2.08263
2.08343
2.08694
2.08576
2.08325
2.07989
2.07649
2.07392
2.07243
2.07212
2.07248
2.07286
2.07286
2.07248
2.07212
2.07243
2.07392
2.07649
2.07989
2.08325
2.08576
2.08694
2.0904
2.08892
2.08564
2.08137
2.07696
2.0735
2.07143
2.07081
2.07101
2.0713
2.0713
2.07101
2.07081
2.07143
2.0735
2.07696
2.08137
2.08564
2.08892
2.0904
2.09375
2.09201
2.08807
2.08312
2.07791
2.07362
2.07087
2.06973
2.06955
2.06965
2.06965
2.06955
2.06973
2.07087
2.07362
2.07791
2.08312
2.08807
2.09201
2.09375
2.09694
2.09492
2.09037
2.08496
2.07923
2.07432
2.07087
2.06899
2.0682
2.06796
2.06796
2.0682
2.06899
2.07087
2.07432
2.07923
2.08496
2.09037
2.09492
2.09694
2.09987
2.09757
2.09243
2.08671
2.08072
2.07548
2.07145
2.06877
2.06723
2.06654
2.06654
2.06723
2.06877
2.07145
2.07548
2.08072
2.08671
2.09243
2.09757
2.09987
2.10238
2.09986
2.09425
2.08832
2.08228
2.07697
2.07262
2.0693
2.06706
2.06595
2.06595
2.06706
2.0693
2.07262
2.07697