# vtk DataFile Version 3.0
Grid data
ASCII
DATASET STRUCTURED_POINTS
DIMENSIONS 16 128 1
ORIGIN 0 0 0
SPACING 0.015625 0.0078125 1
POINT_DATA 2048
SCALARS rho double
LOOKUP_TABLE default
1.01976
1.01697
1.01633
1.01436
1.0148
1.01418
1.01426
1.01169
1.01064
1.01256
1.01635
1.02021
1.02319
1.02496
1.02458
1.02634
1.01674
1.0139
1.01324
1.01092
1.01007
1.00866
1.00836
1.00576
1.0055
1.00767
1.0115
1.01609
1.01934
1.02128
1.02115
1.02303
1.01586
1.01298
1.01198
1.00855
1.00497
1.00209
1.00167
1.00463
1.00508
1.00724
1.01114
1.01568
1.01765
1.01995
1.01992
1.02188
1.01629
1.01344
1.01229
1.00753
1.00271
0.996993
0.995329
0.99727
0.999222
1.00117
1.00562
1.0109
1.01494
1.01838
1.01871
1.0211
1.0203
1.01713
1.01717
1.01139
1.00325
0.995931
0.990064
0.989405
0.990989
0.993276
0.998648
1.00604
1.0141
1.01965
1.02099
1.02354
1.02086
1.01787
1.01805
1.01171
1.00276
0.993033
0.985462
0.983336
0.984097
0.987064
0.993075
1.00234
1.01205
1.0191
1.02142
1.02408
1.02236
1.01897
1.01806
1.0115
1.00163
0.991597
0.984952
0.982466
0.983055
0.986286
0.992224
1.00089
1.01008
1.01835
1.02287
1.02556
1.02475
1.02123
1.01962
1.01267
1.00098
0.989201
0.981295
0.979144
0.979532
0.98232
0.989078
0.999032
1.00967
1.0194
1.02523
1.028
1.03025
1.0266
1.02427
1.01506
1.00095
0.98733
0.977455
0.975063
0.974386
0.977903
0.985808
0.997037
1.0103
1.02217
1.02859
1.03106
1.0309
1.02735
1.02406
1.01389
0.99961
0.985433
0.97441
0.970716
0.968862
0.973176
0.982263
0.994745
1.0095
1.02191
1.02886
1.03117
1.03064
1.02716
1.02307
1.01186
0.99766
0.984039
0.973263
0.968093
0.967628
0.972194
0.980074
0.993444
1.00797
1.0206
1.02844
1.03095
1.03307
1.02954
1.02357
1.01113
0.995945
0.981682
0.970675
0.964722
0.964247
0.968057
0.977274
0.991778
1.00743
1.02127
1.02962
1.03242
1.03596
1.03244
1.0249
1.01118
0.995273
0.980177
0.968614
0.962387
0.961725
0.965169
0.975386
0.990109
1.00718
1.02299
1.03267
1.03549
1.03588
1.0325
1.02461
1.01064
0.99433
0.978158
0.965724
0.960981
0.960481
0.964176
0.973676
0.988595
1.00614
1.02228
1.03257
1.03554
1.03561
1.03237
1.02368
1.00922
0.992506
0.976582
0.964411
0.960791
0.959016
0.962874
0.973403
0.98835
1.00509
1.02043
1.03053
1.03363
1.03633
1.03314
1.02347
1.0083
0.991274
0.975663
0.964129
0.959704
0.95825
0.961526
0.971952
0.987385
1.0046
1.02058
1.03135
1.03462
1.0374
1.03422
1.02361
1.00837
0.991255
0.975067
0.963562
0.958117
0.956668
0.960226
0.970843
0.986159
1.00436
1.02178
1.03356
1.03684
1.03768
1.03463
1.02364
1.0082
0.990707
0.974877
0.963598
0.957369
0.956178
0.959624
0.970072
0.985463
1.00402
1.02162
1.03346
1.03675
1.03721
1.03436
1.02356
1.00812
0.990474
0.974896
0.96335
0.957008
0.955748
0.959827
0.970115
0.985586
1.00402
1.02096
1.03231
1.03553
1.03755
1.03461
1.02374
1.00823
0.990584
0.975128
0.963355
0.956893
0.955658
0.959739
0.970151
0.98559
1.00405
1.02112
1.033
1.03646
1.03827
1.03523
1.02432
1.00886
0.991333
0.975709
0.963736
0.957075
0.955913
0.959892
0.969829
0.98549
1.00432
1.02177
1.03448
1.03811
1.03885
1.03576
1.02501
1.00906
0.99157
0.975839
0.964061
0.957656
0.956179
0.960307
0.970157
0.98554
1.00421
1.02175
1.03466
1.0382
1.03886
1.036
1.02535
1.0097
0.99218
0.976528
0.964971
0.958569
0.956957
0.960895
0.970682
0.985662
1.00433
1.0219
1.03446
1.03777
1.03896
1.0362
1.02554
1.00992
0.992342
0.976677
0.965167
0.958649
0.956996
0.960884
0.970691
0.985798
1.0045
1.02206
1.03452
1.03769
1.03912
1.03637
1.02566
1.01013
0.99266
0.977146
0.965799
0.959389
0.957805
0.961542
0.971272
0.986307
1.00483
1.02226
1.03471
1.03781
1.03862
1.03595
1.02522
1.00982
0.992738
0.97753
0.966172
0.959614
0.958139
0.962056
0.971599
0.986433
1.00472
1.02201
1.03445
1.03745
1.0373
1.03493
1.02453
1.00935
0.992524
0.977758
0.966718
0.960317
0.95886
0.962616
0.971866
0.986361
1.00432
1.02137
1.03354
1.03642
1.03541
1.03337
1.02363
1.00872
0.992138
0.977739
0.967181
0.960992
0.95918
0.962753
0.971845
0.986032
1.0037
1.02061
1.03259
1.03532
1.03411
1.03237
1.0232
1.00835
0.991901
0.977762
0.96748
0.961441
0.959684
0.963034
0.971719
0.985599
1.0031
1.02003
1.03218
1.03485
1.03261
1.03114
1.02266
1.00818
0.991976
0.977835
0.967461
0.96143
0.95994
0.96332
0.971581
0.985163
1.00253
1.01937
1.03132
1.0338
1.03218
1.03085
1.02248
1.00805
0.992193
0.978255
0.967868
0.961753
0.960302
0.963575
0.971533
0.984803
1.0021
1.01925
1.03114
1.03353
1.03005
1.02907
1.02162
1.00776
0.992474
0.978924
0.968679
0.962494
0.960672
0.96356
0.971554
0.98469
1.00172
1.01836
1.02949
1.03157
1.02797
1.0274
1.02061
1.00755
0.992818
0.97952
0.969401
0.9633
0.961187
0.964027
0.971957
0.984917
1.00145
1.01746
1.02747
1.02918
1.02639
1.02619
1.01992
1.00755
0.992936
0.979521
0.969399
0.963332
0.961966
0.96492
0.972758
0.985405
1.00133
1.01663
1.02546
1.02678
1.02518
1.02543
1.01967
1.00805
0.993802
0.980341
0.970017
0.964
0.962827
0.965971
0.973707
0.986028
1.00136
1.01579
1.02369
1.0246
1.02443
1.02492
1.01957
1.00877
0.995006
0.981629
0.971167
0.964884
0.962902
0.966031
0.974165
0.986669
1.00151
1.0155
1.02304
1.02351
1.02283
1.02365
1.01929
1.00943
0.996239
0.983087
0.972581
0.966113
0.964019
0.967194
0.975268
0.987404
1.00144
1.01413
1.02102
1.02105
1.02084
1.02199
1.01886
1.00989
0.997356
0.984557
0.97415
0.967672
0.965618
0.968742
0.976557
0.988162
1.00132
1.01264
1.01891
1.01846
1.01902
1.02047
1.01833
1.01016
0.998301
0.985938
0.975801
0.96944
0.96742
0.970405
0.977859
0.988917
1.00134
1.01146
1.01695
1.01609
1.01781
1.01937
1.01784
1.01033
0.999177
0.987282
0.977434
0.971218
0.969221
0.97202
0.979092
0.989664
1.00156
1.01131
1.01509
1.01396
1.01728
1.01887
1.01748
1.01053
0.999972
0.988553
0.979008
0.972899
0.970872
0.973494
0.980233
0.990342
1.00154
1.01033
1.01327
1.01186
1.01656
1.01814
1.01717
1.0107
1.0006
0.989621
0.98041
0.974424
0.972353
0.974797
0.981209
0.99083
1.00134
1.00931
1.0115
1.0099
1.016
1.01735
1.0168
1.01088
1.00115
0.990389
0.981513
0.975695
0.973636
0.975842
0.981905
0.991011
1.00098
1.00834
1.00983
1.0081
1.01603
1.01701
1.01645
1.01085
1.00154
0.991198
0.982497
0.976714
0.974614
0.976609
0.982313
0.990941
1.00048
1.00742
1.00823
1.00644
1.01658
1.01732
1.01631
1.01064
1.00182
0.99192
0.983427
0.977586
0.975418
0.977209
0.982557
0.990826
0.999786
1.00628
1.00702
1.00557
1.01836
1.01869
1.0163
1.01026
1.00175
0.992346
0.984242
0.978468
0.976104
0.977594
0.982571
0.990341
0.999004
1.00561
1.0069
1.00601
1.01975
1.01987
1.01729
1.01012
1.00142
0.992389
0.984732
0.979293
0.976883
0.978132
0.982649
0.989756
0.998192
1.00539
1.00762
1.00725
1.02538
1.02473
1.0195
1.01023
1.00093
0.99209
0.984878
0.97978
0.977343
0.978302
0.982404
0.989084
0.997276
1.00499
1.00827
1.00849
1.03528
1.03363
1.02431
1.01154
1.00072
0.991887
0.985001
0.980034
0.977346
0.977917
0.981724
0.988225
0.996439
1.00459
1.0088
1.00931
1.04271
1.04025
1.02837
1.01299
1.00026
0.990896
0.984594
0.979702
0.976983
0.977179
0.980742
0.987213
0.996164
1.00654
1.01447
1.01582
1.06298
1.05879
1.04042
1.01779
0.999852
0.989425
0.983169
0.978799
0.976458
0.97679
0.978861
0.986607
0.99865
1.01549
1.02925
1.03187
1.08265
1.07732
1.05239
1.02168
0.999081
0.989253
0.981488
0.977159
0.974949
0.974861
0.976968
0.985183
1.00164
1.02599
1.04549
1.04939
1.13858
1.13018
1.08786
1.03336
1.00047
0.991554
0.980444
0.974822
0.972874
0.972536
0.976915
0.983698
1.00271
1.03096
1.05393
1.05872
1.20167
1.18903
1.12901
1.05078
1.00547
0.994859
0.979684
0.971903
0.969864
0.972548
0.97833
0.984279
1.00984
1.05586
1.09361
1.10197
1.24806
1.22784
1.15141
1.0604
1.00925
0.99762
0.979162
0.968292
0.965744
0.970269
0.978659
0.986497
1.02321
1.09587
1.15866
1.17532
1.4143
1.37305
1.2462
1.10352
1.01981
0.998859
0.976315
0.965005
0.961075
0.966363
0.977572
0.98769
1.03192
1.11611
1.19854
1.22456
1.62857
1.56406
1.37848
1.17847
1.03341
0.994497
0.97117
0.961432
0.956877
0.961825
0.972027
0.987316
1.06312
1.2032
1.34692
1.39801
1.82873
1.74814
1.48857
1.20573
1.03946
0.988818
0.968701
0.957899
0.953903
0.960531
0.967203
0.992327
1.10665
1.31094
1.52184
1.59665
1.97061
1.89626
1.64167
1.31876
1.07251
0.987997
0.965864
0.95227
0.948836
0.956563
0.965684
1.00254
1.11401
1.39423
1.65529
1.74693
2.03792
1.97584
1.76334
1.42938
1.13179
1.00016
0.960469
0.950639
0.945968
0.952443
0.962728
1.00455
1.16599
1.42782
1.691
1.78307
2.0658
2.00654
1.78299
1.44972
1.18719
1.00823
0.957762
0.946317
0.942531
0.949363
0.96314
1.02376
1.24177
1.56377
1.84141
1.93251
2.10148
2.06231
1.88704
1.55177
1.20537
1.00576
0.955129
0.942481
0.940009
0.947075
0.962868
1.03636
1.32951
1.70803
1.94812
2.00717
2.1179
2.09156
1.96516
1.66911
1.29056
1.02409
0.95457
0.941545
0.937742
0.945661
0.964432
1.08124
1.42355
1.81699
1.99005
2.02446
2.1128
2.09171
1.99644
1.76557
1.40198
1.08767
0.958959
0.943448
0.936558
0.946073
0.970022
1.16519
1.52148
1.88217
2.01922
2.0398
2.09626
2.08314
1.99872
1.81963
1.51801
1.19171
0.975
0.944894
0.932342
0.947955
0.997928
1.26866
1.61728
1.90897
2.02491
2.03807
2.07579
2.07782
2.0189
1.87549
1.60591
1.29643
1.04184
0.952186
0.927277
0.958863
1.09265
1.37121
1.68704
1.94279
2.03095
2.0331
2.0542
2.0687
2.03614
1.8907
1.61717
1.32312
1.19244
1.01193
0.929237
1.03788
1.25534
1.396
1.6932
1.94715
2.0298
2.02975
2.03299
2.05984
2.05133
1.94681
1.70509
1.44851
1.37029
1.12874
0.969588
1.16569
1.43358
1.51606
1.77353
1.98849
2.04503
2.03999
2.01565
2.0496
2.06434
2.00227
1.82884
1.61341
1.41668
1.2639
1.1179
1.27994
1.46428
1.66884
1.88722
2.03076
2.05797
2.05388
2.00932
2.03912
2.07408
2.04484
1.92967
1.76207
1.57383
1.43148
1.32844
1.43807
1.59627
1.80203
1.96781
2.05107
2.06747
2.06067
2.02141
2.03571
2.07363
2.0655
1.98399
1.86791
1.72487
1.60687
1.54339
1.6098
1.73648
1.89433
1.99901
2.06382
2.07399
2.06813
2.04739
2.04758
2.06719
2.06531
2.01263
1.9173
1.82243
1.75325
1.72462
1.75788
1.8332
1.9303
2.02227
2.07364
2.07914
2.07338
2.08182
2.07183
2.06
2.04603
2.01586
1.95148
1.88595
1.8554
1.84593
1.86214
1.89631
1.96086
2.03013
2.07698
2.08487
2.08367
2.11699
2.09789
2.0562
2.02133
1.99544
1.96283
1.92555
1.90142
1.89221
1.90314
1.92936
1.9731
2.0258
2.07013
2.08963
2.09539
2.14296
2.1201
2.06126
2.00539
1.9683
1.94877
1.92991
1.9129
1.90658
1.91287
1.9333
1.96645
2.01133
2.05758
2.09245
2.10489
2.15265
2.1333
2.07234
2.00351
1.95186
1.92375
1.91084
1.90062
1.89762
1.90194
1.91876
1.94815
1.99296
2.04614
2.09585
2.1112
2.14886
2.13888
2.0893
2.01592
1.95246
1.90945
1.88646
1.87655
1.87498
1.88017
1.89787
1.93201
1.98186
2.04257
2.09771
2.11266
2.14045
2.13862
2.10729
2.03723
1.96482
1.90895
1.87394
1.8566
1.85288
1.86084
1.88752
1.92951
1.98656
2.05419
2.10154
2.11097
2.13322
2.13609
2.11908
2.05889
1.98456
1.92121
1.87862
1.85606
1.85011
1.8596
1.8876
1.93566
2.00198
2.07083
2.10457
2.10821
2.13119
2.1344
2.12295
2.07315
2.00416
1.93851
1.8908
1.86372
1.85562
1.86669
1.89852
1.95156
2.02021
2.08288
2.1059
2.1063
2.13568
2.13559
2.12045
2.07547
2.01476
1.95304
1.90483
1.8763
1.86749
1.8793
1.91297
1.96712
2.03211
2.08699
2.10808
2.10851
2.14494
2.14081
2.11558
2.07036
2.01477
1.96032
1.91576
1.88824
1.87968
1.89103
1.92281
1.97341
2.03289
2.08462
2.11116
2.11479
2.15541
2.14812
2.11345
2.06229
2.00705
1.95712
1.91665
1.89156
1.88385
1.89425
1.9239
1.97063
2.02724
2.08045
2.1161
2.12351
2.16461
2.15585
2.11532
2.05679
1.99661
1.94715
1.90936
1.88663
1.87993
1.88934
1.91676
1.96151
2.01927
2.07825
2.12209
2.13201
2.17188
2.16277
2.11978
2.05602
1.98929
1.93578
1.89746
1.87559
1.86952
1.87861
1.90552
1.95149
2.01409
2.07927
2.12742
2.13799
2.17772
2.1685
2.12464
2.05806
1.98707
1.92792
1.88674
1.86392
1.85787
1.86739
1.89576
1.94525
2.01308
2.0822
2.13063
2.14044
2.18248
2.17309
2.1286
2.0607
1.98705
1.92514
1.88106
1.85663
1.85012
1.86059
1.89095
1.94334
2.0138
2.08483
2.1322
2.14133
2.18614
2.17663
2.13133
2.06235
1.98776
1.92474
1.87989
1.8547
1.84776
1.85902
1.89016
1.94322
2.01462
2.08611
2.13194
2.14041
2.18851
2.17917
2.1334
2.06322
1.98808
1.92521
1.88046
1.8553
1.84813
1.85971
1.89082
1.94343
2.01457
2.08604
2.13019
2.13803
2.18951
2.18066
2.13509
2.06328
1.98793
1.92564
1.8819
1.85697
1.84975
1.86128
1.89206
1.9437
2.01373
2.0848
2.12702
2.13417
2.18879
2.18075
2.13659
2.0637
1.98842
1.92713
1.88405
1.85929
1.85216
1.86335
1.89369
1.94429
2.01256
2.08249
2.12255
2.1289
2.18626
2.17922
2.13714
2.06398
1.98995
1.92963
1.88693
1.86231
1.85524
1.86605
1.8958
1.9453
2.01159
2.07947
2.11684
2.12218
2.1824
2.17655
2.13666
2.06508
1.99308
1.93345
1.89084
1.86623
1.85913
1.86956
1.89859
1.94687
2.01101
2.07614
2.11041
2.11423
2.17766
2.17349
2.13602
2.06749
1.99754
1.93845
1.89583
1.87109
1.86386
1.87381
1.90196
1.94886
2.01063
2.0728
2.10393
2.10599
2.17155
2.16964
2.13526
2.07085
2.00303
1.94441
1.90177
1.87678
1.86922
1.87856
1.90567
1.95108
2.01063
2.06985
2.09782
2.09837
2.1638
2.16446
2.13389
2.07453
2.00894
1.95092
1.90834
1.88302
1.87491
1.88343
1.90934
1.95315
2.0104
2.06693
2.0922
2.0918
2.15553
2.15865
2.13197
2.07803
2.01478
1.95761
1.91513
1.88941
1.88054
1.8881
1.91258
1.95465
2.00964
2.06371
2.08728
2.08666
2.14963
2.15337
2.13187
2.08169
2.02038
1.96413
1.92174
1.8955
1.8857
1.89214
1.9151
1.95532
2.0082
2.06044
2.08393
2.08391
2.14778
2.15154
2.13425
2.08537
2.02528
1.96985
1.92753
1.90074
1.88992
1.89511
1.91654
1.95512
2.00644
2.05845
2.08351
2.08469
2.14778
2.15198
2.13706
2.08814
2.02836
1.97357
1.9314
1.90422
1.89248
1.89652
1.91659
1.95414
2.0053
2.05915
2.08658
2.08866
2.14781
2.15134
2.13692
2.08732
2.02736
1.97343
1.93186
1.90473
1.89245
1.89557
1.91505
1.95286
2.00566
2.06279
2.09186
2.09394
2.14681
2.14823
2.13171
2.08064
2.02052
1.96778
1.92733
1.90086
1.88868
1.89176
1.91164
1.95116
2.00666
2.06644
2.09668
2.09865
2.14728
2.14574
2.12269
2.06856
2.00835
1.95689
1.91795
1.89268
1.88122
1.88503
1.90602
1.94758
2.00555
2.06674
2.09947
2.10317
2.15301
2.14842
2.11576
2.05544
1.99393
1.943
1.90532
1.88131
1.87095
1.8759
1.89791
1.94087
2.00049
2.0635
2.10414
2.11056
2.16241
2.15639
2.11592
2.04752
1.98194
1.92952
1.89197
1.86874
1.85925
1.86512
1.88766
1.93146
1.99245
2.06044
2.11061
2.12004
2.1721
2.16659
2.12383
2.04823
1.97626
1.91961
1.88032
1.85678
1.8476
1.85395
1.87681
1.9218
1.98576
2.06043
2.11854
2.12998
2.17835
2.17513
2.13541
2.05624
1.97753
1.91533
1.87248
1.84726
1.83773
1.84429
1.86807
1.9152
1.98438
2.06634
2.12636
2.1377
2.17892
2.17759
2.14521
2.06708
1.9839
1.91623
1.86941
1.84195
1.83167
1.83857
1.86408
1.91386
1.98802
2.07436
2.13151
2.14097
2.18468
2.18302
2.15022
2.07481
1.99112
1.92032
1.87006
1.84057
1.82971
1.83707
1.86448
1.91691
1.99385
2.08099
2.13595
2.14483
2.19481
2.19034
2.15208
2.0766
1.99459
1.92377
1.87235
1.84163
1.83035
1.83822
1.86677
1.92069
1.99811
2.08388
2.14256
2.15255
2.21142
2.2043
2.15681
2.07631
1.99287
1.92287
1.87222
1.84204
1.83086
1.83902
1.86715
1.92139
1.99941
2.08755
2.15383
2.16634
2.23437
2.22462
2.16712
2.07722
1.9885
1.91736
1.8681
1.8389
1.82822
1.83651
1.86423
1.91901
1.99974
2.09562
2.17126
2.18698
2.2647
2.25222
2.18424
2.08293
1.98544
1.91005
1.86033
1.83168
1.82144
1.83041
1.85908
1.9168
2.00391
2.10975
2.19566
2.21506
2.30291
2.28758
2.20892
2.09591
1.98733
1.90497
1.85227
1.82257
1.81268
1.82297
1.85469
1.9183
2.01452
2.13097
2.22738
2.25069
2.34755
2.32883
2.23885
2.11335
1.99463
1.9051
1.84699
1.81446
1.80466
1.81731
1.85453
1.92449
2.03022
2.15812
2.26517
2.29283
2.39546
2.37239
2.27109
2.13373
2.00495
1.90954
1.84587
1.80995
1.80046
1.81549
1.8587
1.93516
2.04986
2.18844
2.30623
2.33909
2.44413
2.41546
2.30205
2.15299
2.01534
1.91536
1.84654
1.8086
1.7993
1.81673
1.86488
1.9475
2.06924
2.21805
2.34787
2.38691
2.49092
2.4562
2.32996
2.16824
2.02216
1.91961
1.84661
1.80713
1.7982
1.81932
1.8716
1.95915
2.08497
2.2443
2.38782
2.43403
2.53553
2.49502
2.35445
2.17866
2.02271
1.92057
1.84392
1.80301
1.79492
1.82028
1.87663
1.96832
2.09562
2.26612
2.42664
2.48146
2.58108
2.53687
2.37836
2.18555
2.014
1.91704
1.83722
1.79527
1.78802
1.81701
1.87741
1.97359
2.09994
2.28611
2.46982
2.53532
2.62981
2.58383
2.40392
2.18775
1.99602
1.90822
1.82381
1.78185
1.77387
1.80632
1.86916
1.97116
2.09796
2.30199
2.5192
2.59893
2.69809
2.64533
2.42949
2.17583
1.96693
1.89219
1.80483
1.7601
1.75219
1.78618
1.85206
1.9594
2.08032
2.30622
2.57196
2.67378
2.77361
2.71657
2.44932
2.15942
1.94373
1.87915
1.79139
1.73956
1.73034
1.76348
1.83741
1.95118
2.05186
2.29951
2.61005
2.74009
2.84589
2.7814
2.48235
2.15047
1.92784
1.84533
1.7776
1.72506
1.70964
1.74339
1.81644
1.92132
2.01372
2.29272
2.68657
2.84817
2.65961
2.66603
2.3889
2.10848
1.9107
1.82524
1.76679
1.70865
1.6918
1.71912
1.80611
1.88149
1.99762
2.31227
2.70288
2.87237
1.40806
1.78122
1.92754
1.89811
1.74991
1.66978
1.68492
1.69758
1.69069
1.70997
1.71343
1.70504
1.82748
2.07974
2.31962
2.39845
0.237521
0.304021
0.905446
1.26902
1.2838
1.25197
1.38827
1.54023
1.56567
1.54805
1.39849
1.27375
1.30393
1.29216
1.06313
0.735114
0.0136319
0.0485232
0.245511
0.604504
0.820391
0.870113
0.991531
1.14328
1.19046
1.14763
0.997881
0.882597
0.847909
0.650923
0.311601
0.133123
SCALARS u double
LOOKUP_TABLE default
0.00727563
0.0352723
0.0590202
0.0796171
0.0906451
0.0900683
0.0770224
0.0527531
0.0190634
-0.0154173
-0.0424212
-0.057029
-0.057772
-0.0448484
-0.0272265
-0.00572182
0.0072311
0.0351128
0.0588067
0.0794049
0.0906967
0.0912164
0.0773644
0.0522085
0.018778
-0.0153586
-0.0429784
-0.0576203
-0.0578952
-0.0447978
-0.0272146
-0.00571755
0.00693088
0.033622
0.0567208
0.0785553
0.0901278
0.0901907
0.0765038
0.0503741
0.0181659
-0.0144759
-0.0413609
-0.0561192
-0.0574265
-0.0442919
-0.0269155
-0.00559306
0.00648339
0.0315282
0.0529264
0.0740618
0.085298
0.0851595
0.0727223
0.0490385
0.0179667
-0.0130576
-0.0380629
-0.0524986
-0.0547393
-0.0423659
-0.0259179
-0.0053771
0.00606859
0.0294515
0.048963
0.0672984
0.0765804
0.0757383
0.0640334
0.0438946
0.0163985
-0.0117529
-0.034451
-0.0482163
-0.0505641
-0.0398721
-0.0246085
-0.00510578
0.00569408
0.0277291
0.0457401
0.061485
0.0672486
0.0647074
0.0534785
0.0358891
0.0128449
-0.0118693
-0.0341655
-0.0477517
-0.0501584
-0.0395196
-0.0243716
-0.00500099
0.00534877
0.0266139
0.0438938
0.0574597
0.0603865
0.0556458
0.044308
0.0287961
0.0104936
-0.0101074
-0.0290162
-0.041082
-0.0434772
-0.0350249
-0.0220943
-0.00447586
0.00524322
0.026096
0.0430696
0.0570167
0.0602013
0.0552596
0.0434871
0.0278238
0.00999397
-0.00721969
-0.0223353
-0.03196
-0.0347738
-0.0294281
-0.0189534
-0.00365227
0.00458712
0.0234702
0.0384456
0.0504229
0.0532007
0.0484876
0.0378316
0.0242009
0.00970809
-0.00429384
-0.0161573
-0.0246205
-0.0280538
-0.0246998
-0.0164543
-0.0030961
0.00386887
0.0199413
0.0318351
0.0412572
0.0428521
0.0387158
0.0303764
0.0197833
0.00841054
-0.00380372
-0.0154509
-0.0239142
-0.027554
-0.0245769
-0.0163516
-0.00304528
0.00324103
0.0171871
0.0266274
0.0325293
0.0319841
0.0280033
0.0223915
0.0149652
0.00640399
-0.00270404
-0.0120124
-0.019454
-0.0228599
-0.0209515
-0.0141358
-0.0024335
0.00274579
0.0157582
0.0240437
0.027657
0.0257369
0.0213661
0.0159653
0.010455
0.00546786
-0.00155993
-0.00825242
-0.0139774
-0.0174034
-0.0171206
-0.0117318
-0.00192081
0.00269209
0.0156206
0.0239118
0.0274493
0.0252349
0.0196033
0.0123977
0.00812488
0.00431402
0.000252222
-0.00450598
-0.0096597
-0.0133104
-0.0144837
-0.0109844
-0.00188216
0.0020691
0.0130417
0.0196147
0.0220491
0.020416
0.0162226
0.0120652
0.00773417
0.0044674
0.000575125
-0.00405404
-0.00918668
-0.0130202
-0.0124638
-0.00916614
-0.00137248
0.0013511
0.00970046
0.0142
0.0147584
0.0137316
0.0114413
0.00919013
0.00661394
0.00431042
0.00225102
-0.00191572
-0.00644139
-0.00915891
-0.00907381
-0.00687132
-0.000883031
0.000802546
0.00743887
0.0107519
0.0100087
0.00896578
0.00656944
0.00552673
0.00466376
0.0041232
0.00258358
0.000673201
-0.00273674
-0.00554828
-0.00648478
-0.00501462
-0.000492902
0.000758277
0.00736253
0.0106242
0.00956942
0.00622675
0.00327443
0.00266137
0.00313477
0.00371173
0.00406426
0.00299198
-4.23425e-05
-0.00287283
-0.00486267
-0.00446467
-0.000402355
0.000275825
0.00474207
0.00708521
0.00587048
0.00405113
0.00278573
0.00232366
0.00292305
0.003797
0.00468141
0.00435969
0.0015741
-0.000575559
-0.00271813
-0.00280484
-3.23751e-06
-0.000269561
0.00208742
0.00292215
0.00133883
0.000664802
7.97722e-05
0.000527336
0.00213282
0.00429382
0.00577128
0.00568788
0.00364305
0.00156827
-0.000870186
-0.00168598
0.000310208
-0.000658702
3.50027e-05
-5.28055e-05
-0.00162587
-0.00226596
-0.00280615
-0.00158584
0.00102808
0.0039808
0.00642322
0.00720653
0.00563809
0.00349761
0.000718369
-0.00036703
0.000632011
-0.000830191
-0.000341774
-0.000507253
-0.00255457
-0.00443775
-0.00506659
-0.00333197
-1.43528e-05
0.00376042
0.00670056
0.00830029
0.00751061
0.00505092
0.00189807
0.000804136
0.000902703
-0.00119916
-0.00237679
-0.0030507
-0.00487489
-0.00516731
-0.00529713
-0.00364055
-0.000674178
0.00346827
0.006943
0.00899155
0.00790095
0.00598912
0.00341159
0.00226733
0.00116746
-0.00139134
-0.00394135
-0.00527298
-0.00734333
-0.00732729
-0.00690791
-0.00451769
-0.000992562
0.00336723
0.00716954
0.00941633
0.00912164
0.00769203
0.00504579
0.00339169
0.00133667
-0.00165675
-0.00528034
-0.00697218
-0.00934647
-0.00942315
-0.00849511
-0.00545323
-0.00137786
0.00319575
0.00730076
0.010001
0.0103463
0.00943505
0.00665084
0.00469963
0.00159433
-0.00187489
-0.00630833
-0.00820898
-0.0108475
-0.0110492
-0.00967554
-0.00608629
-0.00172445
0.00306525
0.00755563
0.0107384
0.0116663
0.0111787
0.00829547
0.00593258
0.00182897
-0.00206579
-0.00741016
-0.00942903
-0.0117918
-0.0116117
-0.00998501
-0.00629661
-0.00186173
0.00308318
0.00788499
0.0115154
0.0129581
0.0127419
0.00980187
0.00705182
0.00202627
-0.0022204
-0.00865001
-0.0110952
-0.0133658
-0.0128846
-0.0107642
-0.00665962
-0.0019055
0.00324466
0.00825662
0.0122382
0.0140698
0.0139662
0.0106761
0.00787136
0.00215785
-0.002375
-0.00975497
-0.0126831
-0.0148707
-0.0140776
-0.0114517
-0.00695276
-0.00191911
0.00343236
0.00859411
0.0128045
0.0148968
0.0150067
0.0119224
0.00881159
0.00231933
-0.0024764
-0.0105622
-0.0138459
-0.0159958
-0.0149231
-0.0118289
-0.00709438
-0.00192322
0.00357743
0.00885107
0.0132938
0.0157228
0.0160543
0.013106
0.00968125
0.00247074
-0.00255929
-0.0112363
-0.01487
-0.0168336
-0.0153087
-0.0119265
-0.00711761
-0.00188265
0.0037485
0.00898197
0.0137285
0.0165711
0.0171704
0.0143199
0.0105784
0.00261873
-0.00261711
-0.0116857
-0.0158105
-0.017614
-0.0157395
-0.011985
-0.00711336
-0.0017856
0.00390664
0.00909027
0.0140728
0.0173677
0.0182693
0.0154951
0.0114249
0.00274437
-0.00266434
-0.0120026
-0.0166672
-0.0182587
-0.0161783
-0.0121161
-0.00713846
-0.00168702
0.00399831
0.0092271
0.0143309
0.018051
0.0192546
0.0165977
0.012216
0.00284527
-0.00269286
-0.0121272
-0.0172773
-0.018701
-0.016461
-0.0122307
-0.00715421
-0.00165944
0.00403514
0.00935634
0.0145346
0.0185584
0.0201
0.0175933
0.0128538
0.00290935
-0.00264687
-0.0122101
-0.0175221
-0.0188907
-0.0165116
-0.0121934
-0.00707376
-0.0015719
0.00408882
0.00943812
0.014664
0.0188834
0.0207735
0.0185151
0.0131862
0.00294386
-0.00251457
-0.0120613
-0.0174567
-0.0188368
-0.0164092
-0.0120193
-0.00685535
-0.00132587
0.0042072
0.00947545
0.014666
0.0190364
0.0211971
0.0192499
0.0132821
0.00297138
-0.00231612
-0.0117537
-0.0171515
-0.0185445
-0.0161862
-0.0117805
-0.00659845
-0.00106621
0.00432689
0.00950425
0.0146245
0.0190246
0.0213309
0.0195056
0.0133957
0.00293832
-0.00205721
-0.011286
-0.0166086
-0.0180378
-0.0158488
-0.0115412
-0.00643108
-0.00093774
0.00437246
0.0094703
0.0145202
0.01886
0.0211965
0.0194679
0.0133746
0.00280636
-0.00175521
-0.0105626
-0.0158088
-0.0173521
-0.0154066
-0.0113844
-0.00643815
-0.000988289
0.00425507
0.0092851
0.014292
0.0185712
0.0208077
0.0191252
0.0131
0.00260782
-0.00143225
-0.00957344
-0.0146557
-0.0163709
-0.0148288
-0.0110858
-0.00640142
-0.0011109
0.00403235
0.00900092
0.0139653
0.0181212
0.0201554
0.01843
0.0125962
0.00225598
-0.00110092
-0.00823878
-0.0130635
-0.0150308
-0.0140247
-0.0106765
-0.00626041
-0.00121738
0.00377265
0.00868539
0.0135283
0.0174467
0.0191588
0.0173585
0.0116955
0.00190984
-0.000745991
-0.00650919
-0.010991
-0.0132677
-0.0129318
-0.0100939
-0.00602544
-0.00126162
0.00352493
0.00835478
0.0129576
0.0164859
0.0177549
0.0159235
0.0105506
0.001564
-0.000361771
-0.00447094
-0.00852495
-0.0110644
-0.0114699
-0.00928252
-0.0057008
-0.00127009
0.00329871
0.00794602
0.0122068
0.0152506
0.0160068
0.0140959
0.00907656
0.00119658
0.000110162
-0.00252698
-0.00582949
-0.00842766
-0.00958758
-0.00817877
-0.00524991
-0.00123255
0.00305069
0.00740444
0.0112252
0.0137532
0.0139942
0.0118467
0.00718048
0.000790854
0.00032368
-0.000875889
-0.0030274
-0.00544172
-0.00730088
-0.00674395
-0.00461146
-0.00117298
0.00271066
0.00668311
0.00995297
0.0119186
0.0116402
0.00924859
0.00499972
0.000395626
0.000760351
0.00138428
-2.24501e-05
-0.00225115
-0.00457737
-0.00490603
-0.00370148
-0.000980892
0.0023148
0.00570189
0.00826656
0.00963572
0.00885096
0.00631607
0.0027685
-8.23449e-05
0.00122818
0.00388389
0.00307546
0.00116538
-0.00147147
-0.00264265
-0.00249977
-0.000664427
0.00185638
0.00445095
0.00615011
0.00687894
0.00556227
0.00299253
0.000414088
-0.000462748
0.00161795
0.00613526
0.0063203
0.00499346
0.00200887
4.9526e-06
-0.000970837
-0.000209225
0.00132308
0.00301061
0.00372615
0.0036773
0.00178767
-0.000675324
-0.00203442
-0.000853956
0.00166903
0.00724125
0.0096111
0.00901051
0.00594827
0.00306619
0.000913695
0.000401147
0.00073998
0.00141684
0.000999586
-1.40534e-05
-0.00248577
-0.00466881
-0.00448797
-0.0012342
0.00211571
0.00954147
0.0131401
0.0134307
0.0103082
0.00658863
0.00318711
0.00118642
7.84737e-05
-0.000404248
-0.00215452
-0.00431336
-0.00713697
-0.00862276
-0.00685046
-0.00162479
0.00245356
0.011545
0.0166338
0.0180821
0.0150371
0.0104817
0.00582656
0.00224579
-0.000486094
-0.00272995
-0.00597152
-0.00918154
-0.012084
-0.0115363
-0.00921278
-0.0020739
0.00288494
0.0139623
0.020312
0.022921
0.0199235
0.0144969
0.00862302
0.00342572
-0.00107014
-0.00526123
-0.0100624
-0.014362
-0.0174779
-0.0159546
-0.0114878
-0.00252813
0.00329958
0.0162866
0.0239006
0.0274986
0.0246556
0.0184485
0.0113635
0.00452473
-0.00171556
-0.00768109
-0.0139535
-0.0194906
-0.0231506
-0.0203825
-0.013726
-0.0029455
0.00349089
0.0178004
0.0266789
0.031366
0.0288234
0.0220368
0.01385
0.00546988
-0.00234125
-0.00984616
-0.0174586
-0.0244261
-0.0286045
-0.0248048
-0.0164015
-0.00344782
0.0035094
0.0180788
0.0281533
0.034449
0.0323506
0.0250521
0.01588
0.00623037
-0.00299547
-0.0117519
-0.0207004
-0.0290605
-0.0331891
-0.0285214
-0.0186417
-0.00385229
0.00362841
0.0190898
0.0296769
0.0370891
0.0352095
0.0270129
0.0168447
0.00657655
-0.00331628
-0.0127796
-0.0230962
-0.032891
-0.0368952
-0.0315108
-0.0203336
-0.00410162
0.00293851
0.017174
0.0288359
0.0372299
0.0361776
0.0277033
0.0164125
0.00587624
-0.00457083
-0.0118411
-0.02356
-0.035583
-0.0401447
-0.0345955
-0.0223097
-0.00425626
0.00199266
0.0132564
0.0235055
0.0330114
0.034139
0.0261798
0.0146713
0.00452329
-0.00601385
-0.0101883
-0.022387
-0.0365957
-0.0412007
-0.0341651
-0.0212697
-0.00382642
0.000935549
0.00865576
0.0159111
0.0254343
0.0289341
0.0229106
0.0131825
0.00366264
-0.00657423
-0.00945306
-0.0203383
-0.0343754
-0.0379837
-0.0297438
-0.0179456
-0.00284224
-0.000228325