# vtk DataFile Version 3.0
Grid data
ASCII
DATASET STRUCTURED_POINTS
DIMENSIONS 16 128 1
ORIGIN 0 0 0
SPACING 0.015625 0.0078125 1
POINT_DATA 2048
SCALARS rho double
LOOKUP_TABLE default
1.02406
1.02232
1.01703
1.0076
1.00003
0.992526
0.984936
0.979854
0.978191
0.979854
0.984936
0.992526
1.00003
1.0076
1.01712
1.0222
1.0013
1.0012
1.00092
1.00055
0.999974
0.999494
1.00035
1.00083
1.0009
1.00083
1.00035
0.999494
0.999974
1.00055
1.00093
1.00119
1
1
1
1.00001
1.00001
1
1
1.00003
1.00004
1.00003
1
1
1.00001
1.00001
1
1
0.99994
0.999944
0.999957
0.999973
1
1.00003
1.00005
1.00006
1.00006
1.00006
1.00005
1.00003
1
0.999972
0.999957
0.999944
0.999946
0.99995
0.999962
0.99998
1
1.00002
1.00004
1.00005
1.00005
1.00005
1.00004
1.00002
1
0.99998
0.999962
0.999951
0.999947
0.999951
0.999962
0.99998
1
1.00002
1.00004
1.00005
1.00005
1.00005
1.00004
1.00002
1
0.99998
0.999962
0.999951
0.999946
0.99995
0.999962
0.999979
1
1.00002
1.00004
1.00005
1.00005
1.00005
1.00004
1.00002
1
0.999979
0.999962
0.999951
0.999946
0.99995
0.999962
0.999979
1
1.00002
1.00004
1.00005
1.00005
1.00005
1.00004
1.00002
1
0.999979
0.999962
0.999951
0.999946
0.99995
0.999962
0.999979
1
1.00002
1.00004
1.00005
1.00005
1.00005
1.00004
1.00002
1
0.999979
0.999962
0.99995
0.999946
0.99995
0.999962
0.999979
1
1.00002
1.00004
1.00005
1.00005
1.00005
1.00004
1.00002
1
0.999979
0.999962
0.99995
0.999946
0.99995
0.999962
0.999979
1
1.00002
1.00004
1.00005
1.00005
1.00005
1.00004
1.00002
1
0.999979
0.999961
0.99995
0.999946
0.99995
0.999962
0.999979
1
1.00002
1.00004
1.00005
1.00005
1.00005
1.00004
1.00002
1
0.999979
0.999961
0.99995
0.999945
0.99995
0.999962
0.999979
1
1.00002
1.00004
1.00005
1.00005
1.00005
1.00004
1.00002
1
0.999979
0.999961
0.99995
0.999945
0.999949
0.999961
0.999979
1
1.00002
1.00004
1.00005
1.00005
1.00005
1.00004
1.00002
1
0.999979
0.999961
0.99995
0.999945
0.999949
0.999961
0.999979
1
1.00002
1.00004
1.00005
1.00005
1.00005
1.00004
1.00002
1
0.999979
0.999961
0.99995
0.999945
0.999949
0.999961
0.999979
1
1.00002
1.00004
1.00005
1.00005
1.00005
1.00004
1.00002
1
0.999979
0.999961
0.999949
0.999945
0.999949
0.999961
0.999979
1
1.00002
1.00004
1.00005
1.00006
1.00005
1.00004
1.00002
1
0.999979
0.999961
0.999949
0.999945
0.999949
0.999961
0.999979
1
1.00002
1.00004
1.00005
1.00006
1.00005
1.00004
1.00002
1
0.999979
0.999961
0.999949
0.999945
0.999949
0.999961
0.999979
1
1.00002
1.00004
1.00005
1.00006
1.00005
1.00004
1.00002
1
0.999979
0.999961
0.999949
0.999944
0.999949
0.999961
0.999979
1
1.00002
1.00004
1.00005
1.00006
1.00005
1.00004
1.00002
1
0.999979
0.99996
0.999949
0.999944
0.999948
0.999961
0.999979
1
1.00002
1.00004
1.00005
1.00006
1.00005
1.00004
1.00002
1
0.999979
0.99996
0.999949
0.999944
0.999948
0.99996
0.999979
1
1.00002
1.00004
1.00005
1.00006
1.00005
1.00004
1.00002
1
0.999979
0.99996
0.999949
0.999944
0.999948
0.99996
0.999979
1
1.00002
1.00004
1.00005
1.00006
1.00005
1.00004
1.00002
1
0.999978
0.99996
0.999948
0.999944
0.999948
0.99996
0.999978
1
1.00002
1.00004
1.00005
1.00006
1.00005
1.00004
1.00002
1
0.999978
0.99996
0.999948
0.999944
0.999948
0.99996
0.999978
1
1.00002
1.00004
1.00005
1.00006
1.00005
1.00004
1.00002
1
0.999978
0.99996
0.999948
0.999943
0.999948
0.99996
0.999978
1
1.00002
1.00004
1.00005
1.00006
1.00005
1.00004
1.00002
1
0.999978
0.99996
0.999948
0.999943
0.999947
0.99996
0.999978
1
1.00002
1.00004
1.00005
1.00006
1.00005
1.00004
1.00002
1
0.999978
0.99996
0.999948
0.999943
0.999947
0.99996
0.999978
1
1.00002
1.00004
1.00005
1.00006
1.00005
1.00004
1.00002
1
0.999978
0.99996
0.999948
0.999943
0.999947
0.99996
0.999978
1
1.00002
1.00004
1.00005
1.00006
1.00005
1.00004
1.00002
1
0.999978
0.999959
0.999947
0.999943
0.999947
0.99996
0.999978
1
1.00002
1.00004
1.00005
1.00006
1.00005
1.00004
1.00002
1
0.999978
0.999959
0.999947
0.999942
0.999947
0.999959
0.999978
1
1.00002
1.00004
1.00005
1.00006
1.00005
1.00004
1.00002
1
0.999978
0.999959
0.999947
0.999942
0.999947
0.999959
0.999978
1
1.00002
1.00004
1.00005
1.00006
1.00005
1.00004
1.00002
1
0.999978
0.999959
0.999947
0.999942
0.999946
0.999959
0.999978
1
1.00002
1.00004
1.00005
1.00006
1.00005
1.00004
1.00002
1
0.999978
0.999959
0.999947
0.999942
0.999946
0.999959
0.999978
1
1.00002
1.00004
1.00005
1.00006
1.00005
1.00004
1.00002
1
0.999978
0.999959
0.999947
0.999942
0.999946
0.999959
0.999978
1
1.00002
1.00004
1.00005
1.00006
1.00005
1.00004
1.00002
1
0.999978
0.999959
0.999946
0.999942
0.999946
0.999959
0.999978
1
1.00002
1.00004
1.00005
1.00006
1.00005
1.00004
1.00002
1
0.999978
0.999958
0.999946
0.999941
0.999946
0.999959
0.999978
1
1.00002
1.00004
1.00005
1.00006
1.00005
1.00004
1.00002
1
0.999978
0.999958
0.999946
0.999941
0.999946
0.999958
0.999977
1
1.00002
1.00004
1.00005
1.00006
1.00005
1.00004
1.00002
1
0.999977
0.999958
0.999946
0.999941
0.999945
0.999958
0.999977
1
1.00002
1.00004
1.00005
1.00006
1.00005
1.00004
1.00002
1
0.999977
0.999958
0.999946
0.999941
0.999945
0.999958
0.999977
1
1.00002
1.00004
1.00005
1.00006
1.00005
1.00004
1.00002
1
0.999977
0.999958
0.999946
0.999941
0.999945
0.999958
0.999977
1
1.00002
1.00004
1.00005
1.00006
1.00005
1.00004
1.00002
1
0.999977
0.999958
0.999945
0.99994
0.999945
0.999958
0.999977
1
1.00002
1.00004
1.00006
1.00006
1.00006
1.00004
1.00002
1
0.999977
0.999958
0.999945
0.99994
0.999945
0.999958
0.999977
1
1.00002
1.00004
1.00006
1.00006
1.00006
1.00004
1.00002
1
0.999977
0.999958
0.999945
0.99994
0.999945
0.999958
0.999977
1
1.00002
1.00004
1.00006
1.00006
1.00006
1.00004
1.00002
1
0.999977
0.999957
0.999945
0.99994
0.999944
0.999957
0.999977
1
1.00002
1.00004
1.00006
1.00006
1.00006
1.00004
1.00002
1
0.999977
0.999957
0.999945
0.99994
0.999944
0.999957
0.999977
1
1.00002
1.00004
1.00006
1.00006
1.00006
1.00004
1.00002
1
0.999977
0.999957
0.999944
0.999939
0.999944
0.999957
0.999977
1
1.00002
1.00004
1.00006
1.00006
1.00006
1.00004
1.00002
1
0.999977
0.999957
0.999944
0.999939
0.999944
0.999957
0.999977
1
1.00002
1.00004
1.00006
1.00006
1.00006
1.00004
1.00002
1
0.999977
0.999957
0.999944
0.999939
0.999944
0.999957
0.999977
1
1.00002
1.00004
1.00006
1.00006
1.00006
1.00004
1.00002
1
0.999977
0.999957
0.999944
0.999939
0.999943
0.999957
0.999977
1
1.00002
1.00004
1.00006
1.00006
1.00006
1.00004
1.00002
1
0.999977
0.999956
0.999944
0.999939
0.999943
0.999957
0.999976
1
1.00002
1.00004
1.00006
1.00006
1.00006
1.00004
1.00002
1
0.999976
0.999956
0.999944
0.999938
0.999943
0.999956
0.999976
1
1.00002
1.00004
1.00006
1.00006
1.00006
1.00004
1.00002
1
0.999976
0.999956
0.999943
0.999938
0.999943
0.999956
0.999976
1
1.00002
1.00004
1.00006
1.00006
1.00006
1.00004
1.00002
1
0.999976
0.999956
0.999943
0.999938
0.999943
0.999956
0.999976
1
1.00002
1.00004
1.00006
1.00006
1.00006
1.00004
1.00002
1
0.999976
0.999956
0.999943
0.999938
0.999942
0.999956
0.999976
1
1.00002
1.00004
1.00006
1.00006
1.00006
1.00004
1.00002
1
0.999976
0.999956
0.999943
0.999937
0.999942
0.999956
0.999976
1
1.00002
1.00004
1.00006
1.00006
1.00006
1.00004
1.00002
1
0.999976
0.999956
0.999942
0.999937
0.999942
0.999956
0.999976
1
1.00002
1.00004
1.00006
1.00006
1.00006
1.00004
1.00002
1
0.999976
0.999955
0.999942
0.999937
0.999942
0.999955
0.999976
1
1.00002
1.00004
1.00006
1.00006
1.00006
1.00004
1.00002
1
0.999976
0.999955
0.999942
0.999937
0.999941
0.999955
0.999976
1
1.00002
1.00004
1.00006
1.00006
1.00006
1.00004
1.00002
1
0.999976
0.999955
0.999942
0.999938
0.999942
0.999956
0.999976
1
1.00002
1.00004
1.00006
1.00006
1.00006
1.00004
1.00002
1
0.999976
0.999956
0.999943
0.999931
0.999937
0.999955
0.99998
1.00001
1.00004
1.00006
1.00008
1.00009
1.00008
1.00006
1.00004
1.00001
0.99998
0.999955
0.999938
1.00082
1.00082
1.00081
1.0008
1.00078
1.00076
1.00074
1.00073
1.00072
1.00073
1.00074
1.00076
1.00078
1.0008
1.00081
1.00082
1.06773
1.06754
1.06696
1.06604
1.06486
1.06362
1.06247
1.06167
1.06138
1.06167
1.06247
1.06362
1.06486
1.06604
1.06696
1.06754
1.9385
1.93821
1.93738
1.93621
1.93492
1.93369
1.93275
1.93215
1.93195
1.93215
1.93275
1.93369
1.93492
1.93621
1.93739
1.9382
1.99937
1.99938
1.99939
1.99941
1.99943
1.99945
1.99947
1.99949
1.99949
1.99949
1.99947
1.99945
1.99943
1.99941
1.99939
1.99938
1.9998
1.99981
1.99986
1.99992
2
2.00008
2.00015
2.0002
2.00021
2.0002
2.00015
2.00008
2
1.99992
1.99985
1.99981
1.99981
1.99983
1.99987
1.99993
2
2.00007
2.00013
2.00017
2.00019
2.00017
2.00013
2.00007
2
1.99993
1.99987
1.99983
1.99981
1.99983
1.99987
1.99993
2
2.00007
2.00013
2.00017
2.00019
2.00017
2.00013
2.00007
2
1.99993
1.99987
1.99983
1.99981
1.99982
1.99987
1.99993
2
2.00007
2.00013
2.00018
2.00019
2.00018
2.00013
2.00007
2
1.99993
1.99987
1.99983
1.99981
1.99982
1.99986
1.99993
2
2.00007
2.00014
2.00018
2.00019
2.00018
2.00014
2.00007
2
1.99993
1.99986
1.99982
1.99981
1.99982
1.99986
1.99993
2
2.00007
2.00014
2.00018
2.00019
2.00018
2.00014
2.00007
2
1.99993
1.99986
1.99982
1.9998
1.99982
1.99986
1.99993
2
2.00007
2.00014
2.00018
2.0002
2.00018
2.00014
2.00007
2
1.99993
1.99986
1.99982
1.9998
1.99982
1.99986
1.99992
2
2.00008
2.00014
2.00018
2.0002
2.00018
2.00014
2.00008
2
1.99992
1.99986
1.99982
1.9998
1.99982
1.99986
1.99992
2
2.00008
2.00014
2.00018
2.0002
2.00018
2.00014
2.00008
2
1.99992
1.99986
1.99982
1.9998
1.99981
1.99986
1.99992
2
2.00008
2.00014
2.00019
2.0002
2.00019
2.00014
2.00008
2
1.99992
1.99986
1.99982
1.9998
1.99981
1.99986
1.99992
2
2.00008
2.00014
2.00019
2.0002
2.00019
2.00014
2.00008
2
1.99992
1.99986
1.99981
1.9998
1.99981
1.99986
1.99992
2
2.00008
2.00014
2.00019
2.0002
2.00019
2.00014
2.00008
2
1.99992
1.99985
1.99981
1.99979
1.99981
1.99985
1.99992
2
2.00008
2.00015
2.00019
2.00021
2.00019
2.00015
2.00008
2
1.99992
1.99985
1.99981
1.99979
1.99981
1.99985
1.99992
2
2.00008
2.00015
2.00019
2.00021
2.00019
2.00015
2.00008
2
1.99992
1.99985
1.99981
1.99979
1.99981
1.99985
1.99992
2
2.00008
2.00015
2.00019
2.00021
2.00019
2.00015
2.00008
2
1.99992
1.99985
1.99981
1.99979
1.9998
1.99985
1.99992
2
2.00008
2.00015
2.0002
2.00021
2.0002
2.00015
2.00008
2
1.99992
1.99985
1.9998
1.99978
1.9998
1.99985
1.99992
2
2.00008
2.00015
2.0002
2.00022
2.0002
2.00015
2.00008
2
1.99992
1.99985
1.9998
1.99978
1.9998
1.99985
1.99992
2
2.00008
2.00015
2.0002
2.00022
2.0002
2.00015
2.00008
2
1.99992
1.99985
1.9998
1.99978
1.9998
1.99984
1.99992
2
2.00008
2.00016
2.0002
2.00022
2.0002
2.00016
2.00008
2
1.99992
1.99984
1.9998
1.99978
1.99979
1.99984
1.99991
2
2.00009
2.00016
2.00021
2.00022
2.00021
2.00016
2.00009
2
1.99991
1.99984
1.99979
1.99977
1.99979
1.99984
1.99991
2
2.00009
2.00016
2.00021
2.00023
2.00021
2.00016
2.00009
2
1.99991
1.99984
1.99979
1.99977
1.99979
1.99984
1.99991
2
2.00009
2.00016
2.00021
2.00023
2.00021
2.00016
2.00009
2
1.99991
1.99984
1.99979
1.99977
1.99979
1.99984
1.99991
2
2.00009
2.00016
2.00021
2.00023
2.00021
2.00016
2.00009
2
1.99991
1.99984
1.99979
1.99977
1.99978
1.99983
1.99991
2
2.00009
2.00017
2.00022
2.00023
2.00022
2.00017
2.00009
2
1.99991
1.99983
1.99978
1.99976
1.99978
1.99983
1.99991
2
2.00009
2.00017
2.00022
2.00024
2.00022
2.00017
2.00009
2
1.99991
1.99983
1.99978
1.99976
1.99978
1.99983
1.99991
2
2.00009
2.00017
2.00022
2.00024
2.00022
2.00017
2.00009
2
1.99991
1.99983
1.99978
1.99976
1.99978
1.99983
1.99991
2
2.00009
2.00017
2.00022
2.00024
2.00022
2.00017
2.00009
2
1.99991
1.99983
1.99978
1.99975
1.99977
1.99983
1.99991
2
2.00009
2.00017
2.00023
2.00025
2.00023
2.00017
2.00009
2
1.99991
1.99982
1.99977
1.99975
1.99977
1.99982
1.9999
2
2.0001
2.00018
2.00023
2.00025
2.00023
2.00018
2.0001
2
1.9999
1.99982
1.99977
1.99975
1.99977
1.99982
1.9999
2
2.0001
2.00018
2.00023
2.00025
2.00023
2.00018
2.0001
2
1.9999
1.99982
1.99977
1.99974
1.99976
1.99982
1.9999
2
2.0001
2.00018
2.00024
2.00026
2.00024
2.00018
2.0001
2
1.9999
1.99982
1.99976
1.99974
1.99976
1.99981
1.9999
2
2.0001
2.00019
2.00024
2.00026
2.00024
2.00019
2.0001
2
1.9999
1.99981
1.99976
1.99973
1.99975
1.99981
1.9999
2
2.0001
2.00019
2.00025
2.00027
2.00025
2.00019
2.0001
2
1.9999
1.99981
1.99975
1.99973
1.99975
1.99981
1.9999
2
2.0001
2.00019
2.00025
2.00027
2.00025
2.00019
2.0001
2
1.9999
1.99981
1.99975
1.99972
1.99974
1.9998
1.99989
2
2.00011
2.0002
2.00025
2.00028
2.00025
2.0002
2.00011
2
1.99989
1.9998
1.99975
1.99972
1.99974
1.9998
1.99989
2
2.00011
2.0002
2.00026
2.00028
2.00026
2.0002
2.00011
2
1.99989
1.9998
1.99974
1.99971
1.99974
1.9998
1.99989
2
2.00011
2.0002
2.00026
2.00029
2.00026
2.0002
2.00011
2
1.99989
1.9998
1.99974
1.99971
1.99973
1.99979
1.99989
2
2.00011
2.00021
2.00027
2.00029
2.00027
2.00021
2.00011
2
1.99989
1.99979
1.99973
1.9997
1.99972
1.99979
1.99989
2
2.00011
2.00021
2.00028
2.0003
2.00028
2.00021
2.00011
2
1.99989
1.99979
1.99973
1.9997
1.99972
1.99978
1.99988
2
2.00012
2.00022
2.00028
2.0003
2.00028
2.00022
2.00012
2
1.99988
1.99978
1.99972
1.99969
1.99971
1.99978
1.99988
2
2.00012
2.00022
2.00029
2.00031
2.00029
2.00022
2.00012
2
1.99988
1.99978
1.99971
1.99968
1.99971
1.99977
1.99988
2
2.00012
2.00023
2.00029
2.00032
2.00029
2.00023
2.00012
2
1.99988
1.99977
1.99971
1.99967
1.9997
1.99977
1.99988
2
2.00012
2.00023
2.0003
2.00033
2.0003
2.00023
2.00012
2
1.99987
1.99977
1.9997
1.99967
1.99969
1.99976
1.99987
2
2.00013
2.00024
2.00031
2.00034
2.00031
2.00024
2.00013
2
1.99987
1.99976
1.99969
1.99966
1.99968
1.99976
1.99987
2
2.00013
2.00024
2.00032
2.00034
2.00032
2.00024
2.00013
2
1.99987
1.99976
1.99968
1.99965
1.99967
1.99975
1.99986
2
2.00014
2.00025
2.00033
2.00035
2.00033
2.00025
2.00014
2
1.99986
1.99975
1.99967
1.99964
1.99966
1.99974
1.99986
2
2.00014
2.00026
2.00034
2.00037
2.00034
2.00026
2.00014
2
1.99986
1.99974
1.99966
1.99962
1.99965
1.99973
1.99986
2
2.00014
2.00027
2.00035
2.00038
2.00035
2.00027
2.00014
2
1.99986
1.99973
1.99965
1.99961
1.99964
1.99972
1.99985
2
2.00015
2.00028
2.00036
2.00039
2.00036
2.00028
2.00015
2
1.99985
1.99972
1.99964
1.9996
1.99963
1.99971
1.99984
2
2.00016
2.00029
2.00037
2.00041
2.00037
2.00029
2.00016
2
1.99984
1.99971
1.99963
1.99958
1.99961
1.9997
1.99984
2
2.00016
2.0003
2.00039
2.00042
2.00039
2.0003
2.00016
2
1.99984
1.9997
1.99961
1.99956
1.99959
1.99969
1.99983
2
2.00017
2.00031
2.00041
2.00044
2.00041
2.00031
2.00017
2
1.99983
1.99969
1.99959
1.99954
1.99957
1.99967
1.99982
2
2.00018
2.00033
2.00043
2.00046
2.00043
2.00033
2.00018
2
1.99982
1.99967
1.99957
1.99951
1.99955
1.99966
1.99981
2
2.00019
2.00034
2.00045
2.00049
2.00045
2.00034
2.00019
2
1.99981
1.99966
1.99955
1.99948
1.99952
1.99963
1.9998
2
2.0002
2.00037
2.00048
2.00052
2.00048
2.00037
2.0002
2
1.9998
1.99963
1.99952
1.99945
1.99949
1.99961
1.99979
2
2.00021
2.00039
2.00051
2.00055
2.00051
2.00039
2.00021
2
1.99979
1.99961
1.99949
1.9994
1.99945
1.99958
1.99977
2
2.00023
2.00042
2.00055
2.0006
2.00055
2.00042
2.00023
2
1.99977
1.99958
1.99945
1.99935
1.9994
1.99954
1.99975
2
2.00025
2.00046
2.0006
2.00065
2.0006
2.00046
2.00025
2
1.99975
1.99954
1.9994
1.99927
1.99933
1.99948
1.99972
2
2.00028
2.00052
2.00067
2.00073
2.00067
2.00052
2.00028
2
1.99972
1.99948
1.99933
1.99916
1.99923
1.99941
1.99968
2
2.00032
2.0006
2.00078
2.00084
2.00078
2.0006
2.00032
2
1.99968
1.99941
1.99923
1.99902
1.99909
1.9993
1.99961
1.99998
2.00033
2.00063
2.00083
2.0009
2.00083
2.00063
2.00033
1.99998
1.99961
1.9993
1.99909
1.99733
1.99756
1.99818
1.99914
2.00006
2.00097
2.00199
2.00258
2.00279
2.00258
2.00199
2.00097
2.00006
1.99914
1.99818
1.99756
1.99896
1.99901
1.99918
1.99941
1.99993
2.00044
2.00059
2.0008
2.00088
2.0008
2.00059
2.00044
1.99993
1.99941
1.99918
1.99901
SCALARS u double
LOOKUP_TABLE default
2.0263e-05
0.000274958
0.0004877
0.000616257
0.00062427
0.000536289
0.00040929
0.000222211
-5.37476e-13
-0.000222211
-0.000409291
-0.000536279
-0.000623634
-0.000621326
-0.000550864
-8.42849e-05
3.56581e-07
2.22356e-05
3.8698e-05
4.37925e-05
3.70235e-05
3.95026e-05
1.4618e-05
1.26745e-06
5.54041e-12
-1.26746e-06
-1.46197e-05
-3.94888e-05
-3.6969e-05
-4.42098e-05
-4.18031e-05
-9.65447e-06
-9.69541e-07
2.60828e-06
-4.39315e-06
-3.18281e-06
-3.38109e-06
-7.62624e-06
-5.67217e-06
-2.70692e-06
5.56665e-12
2.70707e-06
5.66975e-06
7.64426e-06
3.45866e-06
2.7383e-06
7.01597e-06
-4.34271e-06
-8.88253e-07
2.33712e-06
-2.21692e-06
-3.16708e-06
-3.58089e-06
-3.49651e-06
-2.87899e-06
-1.59671e-06
5.5316e-12
1.59686e-06
2.87659e-06
3.51437e-06
3.65957e-06
2.72427e-06
4.82396e-06
-4.08806e-06
-8.83751e-07
2.31509e-06
-2.22577e-06
-3.12483e-06
-3.58426e-06
-3.54797e-06
-2.87954e-06
-1.60055e-06
5.49647e-12
1.60069e-06
2.87717e-06
3.56568e-06
3.66126e-06
2.68652e-06
4.82074e-06
-4.06463e-06
-8.78556e-07
2.29824e-06
-2.2188e-06
-3.11508e-06
-3.57307e-06
-3.53669e-06
-2.87024e-06
-1.59536e-06
5.46115e-12
1.5955e-06
2.8679e-06
3.55425e-06
3.64975e-06
2.67997e-06
4.80022e-06
-4.04266e-06
-8.73403e-07
2.28088e-06
-2.21283e-06
-3.10678e-06
-3.56345e-06
-3.52705e-06
-2.86229e-06
-1.59094e-06
5.42562e-12
1.59108e-06
2.85997e-06
3.54444e-06
3.63948e-06
2.67515e-06
4.78086e-06
-4.02053e-06
-8.68255e-07
2.26354e-06
-2.20685e-06
-3.09845e-06
-3.55379e-06
-3.51737e-06
-2.85431e-06
-1.5865e-06
5.38988e-12
1.58665e-06
2.85202e-06
3.53461e-06
3.62919e-06
2.67031e-06
4.7615e-06
-3.99839e-06
-8.63111e-07
2.24622e-06
-2.20085e-06
-3.09011e-06
-3.54412e-06
-3.50766e-06
-2.84631e-06
-1.58206e-06
5.3539e-12
1.5822e-06
2.84404e-06
3.52476e-06
3.61887e-06
2.66544e-06
4.74212e-06
-3.97625e-06
-8.57972e-07
2.22892e-06
-2.19484e-06
-3.08174e-06
-3.53441e-06
-3.49793e-06
-2.83828e-06
-1.57759e-06
5.31776e-12
1.57773e-06
2.83604e-06
3.51487e-06
3.60852e-06
2.66054e-06
4.72273e-06
-3.95411e-06
-8.52838e-07
2.21165e-06
-2.18882e-06
-3.07336e-06
-3.52468e-06
-3.48817e-06
-2.83023e-06
-1.57312e-06
5.28141e-12
1.57325e-06
2.82801e-06
3.50496e-06
3.59815e-06
2.65561e-06
4.70333e-06
-3.93196e-06
-8.47708e-07
2.19439e-06
-2.18279e-06
-3.06495e-06
-3.51492e-06
-3.47838e-06
-2.82216e-06
-1.56863e-06
5.24488e-12
1.56876e-06
2.81996e-06
3.49501e-06
3.58775e-06
2.65066e-06
4.68392e-06
-3.90981e-06
-8.42584e-07
2.17716e-06
-2.17674e-06
-3.05652e-06
-3.50514e-06
-3.46855e-06
-2.81406e-06
-1.56412e-06
5.20815e-12
1.56426e-06
2.81189e-06
3.48504e-06
3.57732e-06
2.64567e-06
4.66449e-06
-3.88765e-06
-8.37464e-07
2.15995e-06
-2.17068e-06
-3.04807e-06
-3.49532e-06
-3.45871e-06
-2.80593e-06
-1.55961e-06
5.17121e-12
1.55974e-06
2.80379e-06
3.47504e-06
3.56686e-06
2.64066e-06
4.64506e-06
-3.86549e-06
-8.32349e-07
2.14276e-06
-2.16461e-06
-3.0396e-06
-3.48548e-06
-3.44883e-06
-2.79778e-06
-1.55507e-06
5.13414e-12
1.5552e-06
2.79567e-06
3.46501e-06
3.55638e-06
2.63562e-06
4.62561e-06
-3.84333e-06
-8.27239e-07
2.12559e-06
-2.15853e-06
-3.03111e-06
-3.47562e-06
-3.43892e-06
-2.78961e-06
-1.55053e-06
5.09683e-12
1.55065e-06
2.78752e-06
3.45495e-06
3.54587e-06
2.63055e-06
4.60616e-06
-3.82115e-06
-8.22134e-07
2.10845e-06
-2.15244e-06
-3.0226e-06
-3.46572e-06
-3.42898e-06
-2.78141e-06
-1.54596e-06
5.05939e-12
1.54609e-06
2.77934e-06
3.44486e-06
3.53533e-06
2.62546e-06
4.58668e-06
-3.79898e-06
-8.17034e-07
2.09132e-06
-2.14633e-06
-3.01406e-06
-3.4558e-06
-3.41901e-06
-2.77318e-06
-1.54139e-06
5.02176e-12
1.54151e-06
2.77114e-06
3.43474e-06
3.52476e-06
2.62033e-06
4.5672e-06
-3.7768e-06
-8.11939e-07
2.07422e-06
-2.14021e-06
-3.0055e-06
-3.44584e-06
-3.40901e-06
-2.76493e-06
-1.5368e-06
4.98401e-12
1.53692e-06
2.76291e-06
3.4246e-06
3.51416e-06
2.61517e-06
4.54771e-06
-3.75461e-06
-8.06849e-07
2.05714e-06
-2.13408e-06
-2.99692e-06
-3.43586e-06
-3.39898e-06
-2.75665e-06
-1.53219e-06
4.94606e-12
1.53231e-06
2.75466e-06
3.41442e-06
3.50354e-06
2.60999e-06
4.5282e-06
-3.73243e-06
-8.01764e-07
2.04009e-06
-2.12793e-06
-2.98832e-06
-3.42585e-06
-3.38892e-06
-2.74834e-06
-1.52757e-06
4.90799e-12
1.52769e-06
2.74638e-06
3.40421e-06
3.49288e-06
2.60477e-06
4.50868e-06
-3.71023e-06
-7.96684e-07
2.02306e-06
-2.12177e-06
-2.97969e-06
-3.41581e-06
-3.37883e-06
-2.74001e-06
-1.52293e-06
4.86974e-12
1.52305e-06
2.73807e-06
3.39397e-06
3.4822e-06
2.59953e-06
4.48915e-06
-3.68803e-06
-7.91609e-07
2.00604e-06
-2.1156e-06
-2.97104e-06
-3.40574e-06
-3.3687e-06
-2.73165e-06
-1.51828e-06
4.83137e-12
1.51839e-06
2.72973e-06
3.3837e-06
3.47148e-06
2.59425e-06
4.4696e-06
-3.66583e-06
-7.8654e-07
1.98906e-06
-2.10941e-06
-2.96236e-06
-3.39564e-06
-3.35855e-06
-2.72327e-06
-1.51361e-06
4.79282e-12
1.51372e-06
2.72137e-06
3.37339e-06
3.46074e-06
2.58895e-06
4.45004e-06
-3.64362e-06
-7.81475e-07
1.97209e-06
-2.10321e-06
-2.95367e-06
-3.38551e-06
-3.34836e-06
-2.71486e-06
-1.50893e-06
4.75415e-12
1.50904e-06
2.71299e-06
3.36306e-06
3.44996e-06
2.58361e-06
4.43047e-06
-3.62141e-06
-7.76416e-07
1.95515e-06
-2.09699e-06
-2.94494e-06
-3.37535e-06
-3.33814e-06
-2.70642e-06
-1.50423e-06
4.71535e-12
1.50434e-06
2.70457e-06
3.35269e-06
3.43915e-06
2.57825e-06
4.41088e-06
-3.59919e-06
-7.71362e-07
1.93823e-06
-2.09076e-06
-2.9362e-06
-3.36516e-06
-3.32789e-06
-2.69795e-06
-1.49952e-06
4.67643e-12
1.49963e-06
2.69613e-06
3.3423e-06
3.42831e-06
2.57285e-06
4.39128e-06
-3.57697e-06
-7.66314e-07
1.92134e-06
-2.08452e-06
-2.92743e-06
-3.35494e-06
-3.3176e-06
-2.68946e-06
-1.49479e-06
4.63737e-12
1.49489e-06
2.68766e-06
3.33186e-06
3.41744e-06
2.56742e-06
4.37166e-06
-3.55475e-06
-7.6127e-07
1.90447e-06
-2.07826e-06
-2.91863e-06
-3.34468e-06
-3.30728e-06
-2.68094e-06
-1.49004e-06
4.5982e-12
1.49015e-06
2.67916e-06
3.3214e-06
3.40653e-06
2.56196e-06
4.35204e-06
-3.53252e-06
-7.56232e-07
1.88762e-06
-2.07199e-06
-2.90981e-06
-3.3344e-06
-3.29693e-06
-2.67239e-06
-1.48528e-06
4.55891e-12
1.48538e-06
2.67063e-06
3.31091e-06
3.3956e-06
2.55647e-06
4.33239e-06
-3.51029e-06
-7.512e-07
1.8708e-06
-2.0657e-06
-2.90097e-06
-3.32408e-06
-3.28655e-06
-2.66381e-06
-1.4805e-06
4.5195e-12
1.4806e-06
2.66208e-06
3.30038e-06
3.38463e-06
2.55095e-06
4.31273e-06
-3.48805e-06
-7.46173e-07
1.854e-06
-2.0594e-06
-2.8921e-06
-3.31373e-06
-3.27613e-06
-2.6552e-06
-1.47571e-06
4.48002e-12
1.47581e-06
2.65349e-06
3.28982e-06
3.37362e-06
2.5454e-06
4.29306e-06
-3.4658e-06
-7.41151e-07
1.83722e-06
-2.05309e-06
-2.8832e-06
-3.30335e-06
-3.26568e-06
-2.64656e-06
-1.4709e-06
4.4404e-12
1.47099e-06
2.64488e-06
3.27922e-06
3.36258e-06
2.53982e-06
4.27337e-06
-3.44356e-06
-7.36134e-07
1.82047e-06
-2.04675e-06
-2.87428e-06
-3.29293e-06
-3.25519e-06
-2.6379e-06
-1.46607e-06
4.40069e-12
1.46617e-06
2.63624e-06
3.26859e-06
3.35151e-06
2.5342e-06
4.25367e-06
-3.42131e-06
-7.31124e-07
1.80375e-06
-2.04041e-06
-2.86533e-06
-3.28248e-06
-3.24467e-06
-2.6292e-06
-1.46123e-06
4.3609e-12
1.46132e-06
2.62757e-06
3.25792e-06
3.3404e-06
2.52855e-06
4.23395e-06
-3.39905e-06
-7.26118e-07
1.78705e-06
-2.03404e-06
-2.85636e-06
-3.27199e-06
-3.23411e-06
-2.62048e-06
-1.45636e-06
4.32102e-12
1.45646e-06
2.61886e-06
3.24723e-06
3.32926e-06
2.52287e-06
4.21422e-06
-3.37679e-06
-7.21118e-07
1.77037e-06
-2.02766e-06
-2.84736e-06
-3.26148e-06
-3.22352e-06
-2.61173e-06
-1.45149e-06
4.28104e-12
1.45158e-06
2.61013e-06
3.23649e-06
3.31808e-06
2.51716e-06
4.19447e-06
-3.35453e-06
-7.16124e-07
1.75372e-06
-2.02127e-06
-2.83833e-06
-3.25092e-06
-3.21289e-06
-2.60294e-06
-1.44659e-06
4.24099e-12
1.44668e-06
2.60137e-06
3.22572e-06
3.30687e-06
2.51141e-06
4.17471e-06
-3.33226e-06
-7.11135e-07
1.73709e-06
-2.01486e-06
-2.82928e-06
-3.24034e-06
-3.20223e-06
-2.59413e-06
-1.44168e-06
4.20089e-12
1.44177e-06
2.59258e-06
3.21492e-06
3.29561e-06
2.50563e-06
4.15492e-06
-3.30998e-06
-7.06152e-07
1.72049e-06
-2.00843e-06
-2.8202e-06
-3.22971e-06
-3.19153e-06
-2.58528e-06
-1.43675e-06
4.16069e-12
1.43683e-06
2.58376e-06
3.20408e-06
3.28432e-06
2.49982e-06
4.13513e-06
-3.28771e-06
-7.01175e-07
1.70392e-06
-2.00198e-06
-2.81109e-06
-3.21905e-06
-3.18079e-06
-2.57641e-06
-1.4318e-06
4.12044e-12
1.43188e-06
2.57491e-06
3.1932e-06
3.27299e-06
2.49398e-06
4.11531e-06
-3.26543e-06
-6.96203e-07
1.68737e-06
-1.99552e-06
-2.80195e-06
-3.20836e-06
-3.17001e-06
-2.5675e-06
-1.42684e-06
4.08012e-12
1.42692e-06
2.56602e-06
3.18229e-06
3.26162e-06
2.4881e-06
4.09548e-06
-3.24314e-06
-6.91237e-07
1.67084e-06
-1.98904e-06
-2.79279e-06
-3.19762e-06
-3.1592e-06
-2.55856e-06
-1.42185e-06
4.03975e-12
1.42193e-06
2.55711e-06
3.17134e-06
3.25022e-06
2.48219e-06
4.07564e-06
-3.22085e-06
-6.86276e-07
1.65435e-06
-1.98255e-06
-2.7836e-06
-3.18685e-06
-3.14835e-06
-2.5496e-06
-1.41685e-06
3.99934e-12
1.41693e-06
2.54816e-06
3.16035e-06
3.23877e-06
2.47625e-06
4.05577e-06
-3.19856e-06
-6.81321e-07
1.63787e-06
-1.97603e-06
-2.77437e-06
-3.17605e-06
-3.13747e-06
-2.54059e-06
-1.41183e-06
3.95888e-12
1.41191e-06
2.53918e-06
3.14932e-06
3.22728e-06
2.47028e-06
4.03589e-06
-3.17627e-06
-6.76372e-07
1.62143e-06
-1.9695e-06
-2.76512e-06
-3.1652e-06
-3.12654e-06
-2.53156e-06
-1.40679e-06
3.91838e-12
1.40687e-06
2.53017e-06
3.13826e-06
3.21575e-06
2.46427e-06
4.01599e-06
-3.15397e-06
-6.71429e-07
1.60501e-06
-1.96295e-06
-2.75584e-06
-3.15432e-06
-3.11558e-06
-2.52249e-06
-1.40174e-06
3.87784e-12
1.40181e-06
2.52113e-06
3.12716e-06
3.20417e-06
2.45823e-06
3.99607e-06
-3.13166e-06
-6.66491e-07
1.58862e-06
-1.95639e-06
-2.74654e-06
-3.14339e-06
-3.10457e-06
-2.5134e-06
-1.39666e-06
3.83728e-12
1.39673e-06
2.51205e-06
3.11602e-06
3.19256e-06
2.45215e-06
3.97614e-06
-3.10935e-06
-6.61559e-07
1.57226e-06
-1.9498e-06
-2.7372e-06
-3.13243e-06
-3.09353e-06
-2.50426e-06
-1.39157e-06
3.79668e-12
1.39164e-06
2.50294e-06
3.10484e-06
3.18089e-06
2.44605e-06
3.95618e-06
-3.08704e-06
-6.56633e-07
1.55592e-06
-1.9432e-06
-2.72783e-06
-3.12143e-06
-3.08245e-06
-2.4951e-06
-1.38646e-06
3.75607e-12
1.38652e-06
2.4938e-06
3.09362e-06
3.16919e-06
2.43991e-06
3.93621e-06
-3.06473e-06
-6.51713e-07
1.53961e-06
-1.93658e-06
-2.71843e-06
-3.11038e-06
-3.07132e-06
-2.4859e-06
-1.38132e-06
3.71544e-12
1.38139e-06
2.48462e-06
3.08236e-06
3.15743e-06
2.43373e-06
3.91622e-06
-3.04241e-06
-6.46799e-07
1.52333e-06
-1.92993e-06
-2.70901e-06
-3.0993e-06
-3.06016e-06
-2.47667e-06
-1.37617e-06
3.6748e-12
1.37624e-06
2.47541e-06
3.07107e-06
3.14563e-06
2.42753e-06
3.89621e-06
-3.02009e-06
-6.4189e-07
1.50707e-06
-1.92327e-06
-2.69955e-06
-3.08817e-06
-3.04895e-06
-2.4674e-06
-1.371e-06
3.63414e-12
1.37106e-06
2.46616e-06
3.05973e-06
3.13378e-06
2.42129e-06
3.87619e-06
-2.99776e-06
-6.36988e-07
1.49084e-06
-1.91659e-06
-2.69006e-06
-3.077e-06
-3.03771e-06
-2.4581e-06
-1.36581e-06
3.59351e-12
1.36587e-06
2.45688e-06
3.04835e-06
3.12188e-06
2.41503e-06
3.85614e-06
-2.97544e-06
-6.32091e-07
1.47465e-06
-1.90989e-06
-2.68054e-06
-3.06579e-06
-3.02642e-06
-2.44876e-06
-1.3606e-06
3.55287e-12
1.36066e-06
2.44757e-06
3.03693e-06
3.10993e-06
2.40873e-06
3.83607e-06
-2.9531e-06
-6.27201e-07
1.45848e-06
-1.90317e-06
-2.67099e-06
-3.05453e-06
-3.01509e-06
-2.43939e-06
-1.35537e-06
3.51225e-12
1.35543e-06
2.43822e-06
3.02546e-06
3.09793e-06
2.40239e-06
3.81599e-06
-2.93077e-06
-6.22317e-07
1.44233e-06
-1.89643e-06
-2.66141e-06
-3.04323e-06
-3.00371e-06
-2.42998e-06
-1.35012e-06
3.47162e-12
1.35017e-06
2.42884e-06
3.01396e-06
3.08587e-06
2.39603e-06
3.79588e-06
-2.90843e-06
-6.17442e-07
1.42623e-06
-1.88967e-06
-2.65179e-06
-3.03188e-06
-2.9923e-06
-2.42054e-06
-1.34485e-06
3.431e-12
1.3449e-06
2.41941e-06
3.00241e-06
3.07376e-06
2.38964e-06
3.77576e-06
-2.88609e-06
-6.12565e-07
1.41014e-06
-1.88289e-06
-2.64215e-06
-3.02048e-06
-2.98083e-06