# vtk DataFile Version 3.0
Grid data
ASCII
DATASET STRUCTURED_POINTS
DIMENSIONS 16 128 1
ORIGIN 0 0 0
SPACING 0.015625 0.0078125 1
POINT_DATA 2048
SCALARS rho double
LOOKUP_TABLE default
1.05876
1.05727
1.05763
1.05753
1.05854
1.06078
1.06146
1.06017
1.05761
1.05662
1.05531
1.05433
1.05459
1.0553
1.05505
1.0553
1.05663
1.05506
1.05522
1.05455
1.05509
1.05566
1.0561
1.05394
1.05204
1.05143
1.05055
1.05033
1.04985
1.05039
1.04987
1.05013
1.0574
1.05607
1.05634
1.05512
1.05227
1.04959
1.04967
1.05088
1.0514
1.05087
1.05004
1.0496
1.04712
1.04394
1.0422
1.04256
1.05857
1.05703
1.05715
1.05446
1.04942
1.04432
1.04228
1.0429
1.04359
1.04359
1.04329
1.04295
1.04082
1.03832
1.03651
1.03688
1.05875
1.05666
1.05649
1.05304
1.04751
1.04031
1.03548
1.03449
1.03403
1.03391
1.03417
1.03488
1.03483
1.03511
1.03458
1.03493
1.06026
1.05836
1.05844
1.05541
1.04743
1.03771
1.03118
1.02939
1.02727
1.0264
1.02719
1.0295
1.03175
1.03368
1.03345
1.03397
1.06649
1.06512
1.06526
1.06164
1.05084
1.03787
1.03086
1.02897
1.02661
1.0257
1.02641
1.02873
1.03163
1.03368
1.0336
1.03439
1.0686
1.06702
1.0673
1.06347
1.0516
1.03613
1.02753
1.02506
1.02186
1.02062
1.02192
1.02576
1.03048
1.03319
1.03349
1.03457
1.06858
1.06654
1.06699
1.06156
1.04828
1.03218
1.02279
1.01992
1.01558
1.01357
1.01589
1.02225
1.02937
1.03297
1.03363
1.03492
1.07103
1.06873
1.06832
1.06179
1.04755
1.02882
1.01829
1.01539
1.01053
1.00816
1.01133
1.01964
1.02915
1.03384
1.03479
1.03635
1.07346
1.07128
1.07074
1.06346
1.04611
1.02712
1.01727
1.01506
1.01019
1.00794
1.0111
1.01936
1.02963
1.03573
1.03723
1.0391
1.07484
1.07253
1.07155
1.06363
1.0437
1.02292
1.0121
1.01024
1.00603
1.00365
1.00716
1.01625
1.02801
1.03659
1.03901
1.04115
1.07878
1.07604
1.07431
1.06523
1.04349
1.01864
1.00589
1.00311
0.998362
0.995849
0.999975
1.01061
1.02434
1.03595
1.03954
1.0417
1.0807
1.07783
1.07567
1.06516
1.04103
1.01376
0.99976
0.996572
0.991283
0.988721
0.993624
1.00603
1.02178
1.03518
1.04207
1.04379
1.07824
1.07535
1.0731
1.06208
1.03718
1.0115
0.998955
0.996032
0.990912
0.988394
0.99373
1.00605
1.02197
1.03693
1.04562
1.04733
1.078
1.07513
1.07285
1.06163
1.03493
1.00736
0.994116
0.991894
0.986726
0.98394
0.990068
1.00345
1.02112
1.03744
1.04678
1.04834
1.08118
1.07854
1.0758
1.06268
1.03315
1.00301
0.988326
0.985603
0.979924
0.976774
0.983351
0.99879
1.01841
1.03595
1.04479
1.04615
1.0829
1.08012
1.07705
1.06252
1.03078
0.998701
0.983085
0.980095
0.973803
0.970225
0.977654
0.995008
1.01707
1.03615
1.04525
1.04654
1.08593
1.08269
1.07847
1.06148
1.02935
0.997461
0.982192
0.979287
0.973024
0.969575
0.977175
0.994773
1.01783
1.03823
1.04833
1.0497
1.08731
1.08387
1.07935
1.0612
1.02713
0.99419
0.97826
0.975679
0.969648
0.966056
0.974454
0.993285
1.01756
1.0383
1.04862
1.05011
1.08698
1.08368
1.07973
1.06151
1.02564
0.990407
0.97358
0.970174
0.964544
0.9609
0.970525
0.990861
1.01517
1.03622
1.04662
1.04821
1.09139
1.08779
1.0832
1.06294
1.02494
0.987451
0.969542
0.965656
0.959541
0.955674
0.966615
0.988419
1.01408
1.03605
1.04708
1.04881
1.09912
1.09496
1.08899
1.06522
1.02524
0.986931
0.968777
0.964546
0.957867
0.954185
0.965616
0.987895
1.01499
1.03853
1.05018
1.05199
1.10087
1.09642
1.09047
1.06668
1.02479
0.985352
0.966378
0.962025
0.954627
0.950903
0.96315
0.986623
1.01522
1.03917
1.05086
1.05265
1.11355
1.10809
1.09953
1.06869
1.02372
0.983315
0.964599
0.961233
0.954387
0.949846
0.961343
0.985991
1.01422
1.03768
1.0489
1.0506
1.13048
1.12442
1.11333
1.07492
1.02471
0.98094
0.961171
0.957283
0.951333
0.947186
0.959547
0.984605
1.01341
1.03709
1.04808
1.04966
1.14015
1.13528
1.12459
1.08321
1.02897
0.980757
0.957813
0.95268
0.946733
0.946233
0.959435
0.983961
1.01302
1.03737
1.04867
1.05029
1.1814
1.17615
1.15479
1.09774
1.03151
0.980213
0.957165
0.952098
0.946289
0.943893
0.957699
0.98293
1.01273
1.03803
1.04982
1.05147
1.25406
1.24437
1.19665
1.11699
1.03509
0.976319
0.953409
0.948392
0.942859
0.940828
0.955574
0.982475
1.0136
1.04084
1.05439
1.05647
1.33045
1.31559
1.22691
1.13034
1.0397
0.973536
0.949854
0.944237
0.938243
0.936636
0.952747
0.981169
1.01451
1.04384
1.05844
1.06066
1.3987
1.38541
1.32306
1.18469
1.05949
0.975234
0.950519
0.941944
0.936423
0.935378
0.950505
0.980277
1.01551
1.04581
1.06237
1.06524
1.61743
1.58914
1.46663
1.26935
1.08739
0.975803
0.949808
0.941879
0.933639
0.93212
0.949108
0.98089
1.01962
1.05353
1.07206
1.07523
1.86165
1.80522
1.61379
1.34734
1.10895
0.977252
0.946805
0.939795
0.932336
0.93051
0.949057
0.98406
1.0278
1.06646
1.08435
1.08684
2.08284
1.99963
1.72459
1.38037
1.11533
0.998658
0.94261
0.931673
0.928387
0.928766
0.948943
0.986089
1.02866
1.06891
1.09025
1.09365
2.19928
2.145
1.92051
1.51309
1.16347
1.03081
0.944707
0.922829
0.922069
0.9266
0.948531
0.987398
1.03664
1.08766
1.11565
1.12009
2.21287
2.1928
2.02363
1.62019
1.22201
1.06379
0.948815
0.91459
0.915507
0.922093
0.948149
0.994442
1.05546
1.1193
1.15843
1.16553
2.22523
2.19926
2.05512
1.66789
1.26213
1.08348
0.951745
0.907084
0.906112
0.915539
0.948662
1.00922
1.08341
1.14025
1.18251
1.19113
2.26627
2.24365
2.10285
1.68787
1.26403
1.08894
0.948371
0.903974
0.898311
0.911529
0.945854
1.01258
1.1073
1.21126
1.28179
1.29618
2.27995
2.25209
2.10507
1.70941
1.29526
1.09478
0.945826
0.899846
0.89629
0.913236
0.943595
1.03529
1.16987
1.326
1.43966
1.46465
2.2622
2.22298
2.05723
1.70556
1.31966
1.0947
0.944359
0.892282
0.893459
0.91304
0.946491
1.06196
1.2355
1.43612
1.59162
1.62913
2.23264
2.18217
1.9917
1.66306
1.31695
1.10027
0.943604
0.886625
0.888801
0.904789
0.956492
1.06429
1.25723
1.48895
1.67163
1.72326
2.2097
2.14473
1.92478
1.60126
1.28885
1.1058
0.947118
0.885566
0.884257
0.89697
0.968236
1.09045
1.35938
1.67837
1.90526
1.96119
2.20178
2.12327
1.86496
1.53398
1.24431
1.11767
0.955212
0.87614
0.880959
0.899297
0.993895
1.12889
1.48033
1.84714
2.0177
2.05912
2.194
2.10262
1.81585
1.4753
1.20652
1.12157
0.962287
0.868518
0.880366
0.907096
1.02966
1.19206
1.58042
1.94651
2.05438
2.06726
2.18219
2.08493
1.77682
1.43126
1.18655
1.11287
0.963534
0.867211
0.875134
0.918017
1.0614
1.25305
1.6387
1.98285
2.09741
2.11174
2.16936
2.06999
1.74693
1.39469
1.16156
1.09566
0.955415
0.863968
0.872873
0.923211
1.07334
1.25777
1.64283
2.00309
2.11532
2.12969
2.16661
2.05767
1.72097
1.36439
1.13582
1.07241
0.943679
0.859688
0.86898
0.92442
1.08515
1.30742
1.68727
2.01954
2.12283
2.13565
2.16403
2.05069
1.7067
1.35572
1.11305
1.04337
0.93132
0.856282
0.865083
0.923421
1.09073
1.35956
1.70904
1.99413
2.09137
2.10836
2.16207
2.04023
1.67338
1.3207
1.10189
1.0393
0.930066
0.856225
0.862224
0.925536
1.10327
1.38081
1.69086
1.93521
2.05673
2.08532
2.16325
2.03593
1.65222
1.28915
1.07822
1.02066
0.921947
0.854401
0.863561
0.927934
1.11001
1.37301
1.64156
1.86603
2.01858
2.06562
2.16538
2.0348
1.64326
1.26702
1.05132
0.995444
0.909763
0.854207
0.865661
0.927746
1.10386
1.34044
1.56987
1.79453
1.97914
2.04045
2.17511
2.0359
1.6304
1.2654
1.04722
0.985466
0.89846
0.852069
0.86905
0.924921
1.08665
1.28154
1.48178
1.72598
1.94955
2.02628
2.18787
2.03965
1.61317
1.23832
1.02993
0.972772
0.894658
0.851915
0.87088
0.928816
1.08356
1.19457
1.3941
1.67049
1.93257
2.02152
2.20204
2.04774
1.60271
1.21332
1.01055
0.958051
0.884599
0.849359
0.866905
0.939437
1.07468
1.12948
1.32869
1.62722
1.91455
2.01152
2.22076
2.06011
1.60167
1.21149
0.995596
0.950624
0.882677
0.847504
0.863718
0.943688
1.06362
1.11705
1.31757
1.60894
1.90082
2.00686
2.23722
2.07003
1.58634
1.18368
0.99568
0.943248
0.875885
0.844845
0.864225
0.94401
1.0449
1.08773
1.26414
1.56163
1.89192
2.01494
2.24776
2.07816
1.57905
1.16542
0.98751
0.93953
0.872556
0.844617
0.864645
0.938213
1.02293
1.05597
1.20982
1.52275
1.88773
2.02202
2.26339
2.0914
1.58195
1.16086
0.978873
0.929556
0.866058
0.841569
0.86433
0.937027
1.02005
1.04577
1.17118
1.49736
1.88428
2.02434
2.27953
2.10772
1.58742
1.15924
0.975165
0.924519
0.861016
0.83814
0.861455
0.92964
1.0044
1.02486
1.15341
1.48791
1.88682
2.03471
2.29203
2.12486
1.60013
1.16064
0.970355
0.917558
0.860038
0.837535
0.857946
0.919301
0.985838
1.00143
1.12896
1.47445
1.89385
2.05221
2.30518
2.14263
1.61849
1.16897
0.970087
0.912723
0.857716
0.835804
0.857604
0.911849
0.967111
0.9807
1.12651
1.47301
1.90686
2.07323
2.31864
2.1609
1.64116
1.18326
0.961133
0.902371
0.853946
0.835521
0.85401
0.900118
0.950445
0.978118
1.09952
1.46216
1.92004
2.09173
2.33293
2.18011
1.66235
1.18721
0.947724
0.888109
0.849021
0.834011
0.849043
0.887505
0.937917
0.966762
1.08568
1.4606
1.93607
2.10992
2.3476
2.19968
1.69194
1.21148
0.941225
0.88585
0.844095
0.830701
0.843513
0.877051
0.928934
0.957536
1.08247
1.46733
1.95714
2.13339
2.3631
2.21994
1.7243
1.24116
0.950336
0.874987
0.843695
0.827267
0.839694
0.87651
0.927242
0.956931
1.07913
1.47755
1.98231
2.15887
2.37892
2.2404
1.7567
1.27226
0.963929
0.867356
0.839651
0.825338
0.835356
0.869283
0.914424
0.949311
1.08297
1.49499
2.00852
2.1805
2.39433
2.26172
1.78216
1.2795
0.965653
0.865662
0.836123
0.825673
0.82978
0.855031
0.892112
0.929917
1.09065
1.51821
2.0349
2.20038
2.40795
2.28527
1.83569
1.32237
0.981977
0.863161
0.834083
0.826578
0.825836
0.842106
0.870191
0.908184
1.10723
1.54686
2.05731
2.21466
2.42187
2.30584
1.88358
1.37265
1.01026
0.860519
0.833932
0.827638
0.824711
0.837671
0.856731
0.891117
1.12987
1.57739
2.07728
2.22807
2.43819
2.32548
1.92018
1.41885
1.04248
0.860698
0.833681
0.827396
0.824868
0.833709
0.844189
0.886599
1.14828
1.60348
2.09364
2.24115
2.45386
2.3432
1.95024
1.45166
1.06018
0.855937
0.833282
0.827975
0.824614
0.829386
0.841322
0.88802
1.15424
1.62345
2.11944
2.2628
2.46867
2.35974
1.9678
1.45648
1.06325
0.851015
0.83365
0.829229
0.824068
0.823581
0.832499
0.892848
1.18909
1.67393
2.14849
2.28168
2.47978
2.37783
2.01234
1.49475
1.06988
0.846826
0.830905
0.827886
0.820898
0.81724
0.82465
0.911207
1.23876
1.72628
2.17384
2.29945
2.49569
2.39532
2.04768
1.53884
1.09528
0.847829
0.827175
0.823535
0.81605
0.81137
0.819391
0.939469
1.2864
1.76698
2.19508
2.31595
2.51199
2.41373
2.06136
1.57369
1.12582
0.859334
0.824182
0.816114
0.80947
0.807643
0.819121
0.96522
1.29497
1.78239
2.21572
2.33511
2.5257
2.43286
2.09918
1.581
1.12958
0.860605
0.816022
0.806195
0.800851
0.801892
0.813608
0.969281
1.34767
1.85509
2.2467
2.35277
2.5361
2.44826
2.13247
1.62556
1.1637
0.873327
0.806043
0.795335
0.791651
0.794955
0.806067
0.999696
1.40923
1.91786
2.27063
2.36744
2.5479
2.46125
2.14247
1.66415
1.20909
0.899114
0.799069
0.786236
0.784202
0.788046
0.803883
1.0331
1.45671
1.95577
2.28107
2.37326
2.55996
2.48106
2.18166
1.66964
1.21285
0.924979
0.799389
0.779993
0.778815
0.783258
0.806902
1.03579
1.46344
1.96665
2.30338
2.39349
2.57069
2.49802
2.21813
1.71237
1.24498
0.928501
0.800806
0.777911
0.777096
0.781104
0.809859
1.06581
1.51514
2.02253
2.32788
2.40824
2.59326
2.5203
2.24246
1.7616
1.28827
0.950358
0.80375
0.776844
0.77664
0.781925
0.821907
1.10702
1.56703
2.06434
2.34457
2.41771
2.61753
2.54393
2.26718
1.80692
1.33966
0.988287
0.80348
0.773438
0.774297
0.783644
0.84727
1.11671
1.57458
2.07412
2.35711
2.42898
2.64632
2.57175
2.29354
1.84055
1.3817
1.019
0.809624
0.768152
0.767324
0.781781
0.858115
1.15883
1.63062
2.13078
2.38033
2.4399
2.68171
2.60467
2.31306
1.84598
1.38558
1.02975
0.815328
0.761343
0.760205
0.780331
0.888312
1.22248
1.70039
2.17178
2.39645
2.44939
2.72141
2.64492
2.3574
1.88676
1.40861
1.04242
0.819074
0.756403
0.756886
0.787394
0.932379
1.29747
1.75727
2.17541
2.41503
2.47475
2.76466
2.68604
2.39892
1.93591
1.44011
1.04882
0.818676
0.754808
0.759353
0.819854
0.953272
1.3036
1.76412
2.2133
2.44895
2.50568
2.80988
2.7268
2.43175
1.97659
1.47604
1.06329
0.81915
0.75731
0.767399
0.859896
0.995375
1.35609
1.81903
2.25797
2.48258
2.53588
2.85771
2.76945
2.4473
1.98464
1.49793
1.08571
0.823984
0.760871
0.770568
0.88058
1.05832
1.42796
1.88409
2.29379
2.51435
2.56855
2.90729
2.81871
2.49872
2.03604
1.5458
1.12183
0.843759
0.766747
0.763342
0.878464
1.11703
1.50118
1.93226
2.31824
2.54787
2.60793
2.96212
2.8711
2.54532
2.08808
1.60141
1.16559
0.881841
0.795011
0.751565
0.881717
1.13955
1.50957
1.93385
2.32542
2.58716
2.65627
3.02192
2.92613
2.58358
2.12423
1.65035
1.21949
0.925557
0.839777
0.733873
0.893846
1.16974
1.5467
1.96589
2.36677
2.64069
2.71563
3.08506
2.98369
2.6147
2.14987
1.69325
1.26732
0.970446
0.884612
0.728902
0.907714
1.1989
1.58617
2.00523
2.40846
2.70136
2.7863
3.15353
3.04233
2.64343
2.17023
1.7258
1.32677
1.01564
0.923013
0.717366
0.916918
1.22556
1.62309
2.03899
2.43791
2.76575
2.86334
3.23326
3.11075
2.67422
2.17101
1.72183
1.41089
1.0624
0.949531
0.698121
0.922622
1.25674
1.65924
2.06547
2.47635
2.83394
2.94245
3.3354
3.19649
2.70918
2.17776
1.72675
1.4926
1.14702
0.93969
0.675539
0.937996
1.30209
1.69673
2.08027
2.5077
2.90114
3.02201
3.46409
3.30135
2.74521
2.18431
1.74489
1.50969
1.16972
0.911497
0.652028
0.973058
1.35432
1.72485
2.08025
2.52579
2.96818
3.10193
3.61836
3.42225
2.78394
2.19276
1.7625
1.49088
1.21816
0.946452
0.708663
1.03045
1.40287
1.73466
2.09073
2.57019
3.05277
3.19681
3.79463
3.55902
2.8252
2.19355
1.75775
1.4596
1.3112
1.06671
0.87299
1.12831
1.42489
1.73496
2.10775
2.61837
3.12637
3.27223
3.98688
3.71688
2.87695
2.18558
1.72821
1.46793
1.38768
1.22055
1.11
1.25114
1.44615
1.72559
2.12134
2.66653
3.22943
3.39157
4.16168
3.88358
2.94116
2.16222
1.70099
1.49957
1.40713
1.34204
1.30411
1.35928
1.46785
1.72346
2.1268
2.71431
3.33445
3.51145
4.31307
4.02611
2.99613
2.12959
1.69859
1.5257
1.41596
1.38541
1.37071
1.41767
1.49008
1.70636
2.12287
2.75792
3.46822
3.68041
4.49197
4.16935
3.02841
2.09279
1.67055
1.51772
1.42152
1.40741
1.39961
1.4304
1.49813
1.68274
2.11088
2.81584
3.68549
3.9555
4.67781
4.30087
3.02647
2.04867
1.64465
1.49247
1.41489
1.40391
1.39577
1.42587
1.48784
1.6661
2.08367
2.88747
3.93112
4.24634
5.0036
4.46143
2.97708
1.99072
1.61362
1.46409
1.39631
1.39033
1.38513
1.40511
1.467
1.62039
2.05514
2.93821
4.1149
4.46418
5.36237
4.61341
2.92994
1.92487
1.57556
1.43539
1.37573
1.37173
1.36713
1.37325
1.44634
1.59487
2.00272
2.95505
4.29189
4.72926
5.66596
4.70632
2.92595
1.84846
1.53482
1.40878
1.35748
1.34884
1.34319
1.35661
1.40957
1.55391
1.93
2.92576
4.42904
4.99779
5.637
4.775
2.7359
1.76051
1.50883
1.40684
1.3396
1.3251
1.31908
1.32621
1.38598
1.5118
1.84412
2.85486
4.54051
5.28785
5.38092
4.60596
2.46671
1.66974
1.47598
1.38315
1.31591
1.29828
1.29125
1.31404
1.36093
1.47196
1.74448
2.71092
4.53835
5.55997
5.06332
4.25096
2.18172
1.58702
1.44417
1.35362
1.28672
1.27141
1.26901
1.29373
1.33882
1.46757
1.65634
2.44556
4.3888
5.09783
4.4489
3.7572
1.97345
1.52928
1.43592
1.32292
1.2575
1.24787
1.24983
1.27548
1.31594
1.43524
1.60244
2.36095
3.77062
4.29198
3.82674
3.31523
1.91256
1.5124
1.42866
1.31216
1.25021
1.2349
1.24025
1.26186
1.29549
1.42124
1.55019
2.18729
3.30051
3.92711
3.48082
2.96023
1.76787
1.48717
1.42051
1.30228
1.25537
1.24005
1.24508
1.26985
1.30556
1.42357
1.50771
1.99833
2.92228
3.53588
3.30382
2.62461
1.72561
1.49092
1.41904
1.30718
1.26651
1.24668
1.25164
1.27792
1.30994
1.40842
1.46134
1.84731
2.66907
3.27063
3.30853
2.5816
1.72129
1.48886
1.42106
1.31594
1.28037
1.25785
1.25895
1.28296
1.31001
1.38345
1.43963
1.7038
2.44845
3.15241
3.16637
2.4312
1.66397
1.46772
1.40383
1.30503
1.27611
1.25165
1.25131
1.26984
1.29258
1.35024
1.43042
1.58853
2.26837
3.0581
3.23557
2.37856
1.61605
1.46295
1.39078
1.28857
1.25822
1.23598
1.23859
1.25848
1.2751
1.34002
1.44537
1.55311
2.16829
3.01465
3.19891
2.35504
1.64346
1.49947
1.38012
1.28702
1.26323
1.24501
1.24614
1.27198
1.28963
1.35486
1.46685
1.56612
2.14407
2.96607
3.17688
2.35487
1.67105
1.52698
1.37284
1.31755
1.28737
1.2693
1.26679
1.2921
1.32738
1.36232
1.48438
1.58364
2.14639
2.9802
3.1864
2.35942
1.69841
1.54111
1.37946
1.34457
1.31481
1.29804
1.29089
1.31849
1.36259
1.3713
1.49321
1.60867
2.18768
3.01678
3.17521
2.34944
1.70904
1.56949
1.41637
1.38656
1.35236
1.3365
1.32424
1.3489
1.37155
1.39622
1.50069
1.61686
2.18421
2.99679
3.21344
2.37434
1.7369
1.59671
1.44243
1.42625
1.37213
1.35476
1.33973
1.36942
1.42084
1.44071
1.53473
1.62726
2.17216
2.99256
3.19335
2.35441
1.74126
1.62018
1.48061
1.46425
1.39745
1.37899
1.36239
1.39533
1.46908
1.48324
1.56227
1.64581
2.17803
3.01105
3.2716
2.3974
1.76056
1.63934
1.5302
1.507
1.44142
1.42787
1.422
1.45358
1.51495
1.52424
1.57123
1.65861
2.22832
3.08361
3.25427
2.40913
1.8006
1.68327
1.55435
1.52504
1.45615
1.44532
1.44305
1.47443
1.53413
1.54681
1.62678
1.70843
2.23966
3.07112
3.34607
2.47272
1.88546
1.78051
1.65661
1.61664
1.53594
1.52785
1.53736
1.57069
1.62267
1.64155
1.73481
1.78536
2.26859
3.06055
3.40237
2.59796
2.08092
2.0035
1.89669
1.83957
1.76003
1.75823
1.78161
1.81905
1.85785
1.8996
1.95241
1.98048
2.41502
3.10696
3.31851
2.98209
2.44403
2.13529
2.08241
2.02251
1.96948
1.9688
1.9903
2.02921
2.06109
2.10628
2.11787
2.36097
2.80261
3.06001
3.13938
2.67827
2.19585
2.10028
2.07899
2.02691
2.00473
2.00603
2.02179
2.05381
2.08486
2.12263
2.10937
2.1316
2.49516
2.83527
SCALARS u double
LOOKUP_TABLE default
0.0045194
0.0217285
0.0363381
0.0503889
0.0600679
0.0634524
0.0597921
0.0504094
0.0368371
0.0209764
0.00713325
-0.00248467
-0.00809269
-0.00717589
-0.00466681
-0.00107663
0.00451797
0.0217546
0.0365351
0.0509357
0.0611841
0.0645128
0.0608042
0.0511642
0.0367418
0.0204948
0.0058459
-0.00368836
-0.00852476
-0.00757659
-0.00499246
-0.00114713
0.00454802
0.0218129
0.0364763
0.051071
0.0620737
0.0667589
0.0629762
0.0521152
0.0365039
0.0191973
0.00370563
-0.0060531
-0.0106655
-0.00943525
-0.0059396
-0.00132419
0.00458096
0.0221903
0.0373942
0.0526253
0.0640483
0.0688026
0.0646715
0.0528817
0.0364056
0.01907
0.00342266
-0.00824401
-0.0131631
-0.0112232
-0.00690714
-0.00150582
0.00469846
0.0228655
0.0392634
0.0546482
0.064515
0.0685223
0.0643243
0.0524496
0.0352302
0.0172455
0.00175788
-0.00841912
-0.0133492
-0.0113073
-0.00695024
-0.00151869
0.00472639
0.0231107
0.0397172
0.0551568
0.0655532
0.0691617
0.0640482
0.0511528
0.0332004
0.0146193
-0.00100695
-0.0107744
-0.0150565
-0.0127658
-0.00779008
-0.00167065
0.00470878
0.0229622
0.039016
0.0547308
0.0658122
0.0687138
0.0628156
0.0494635
0.0311548
0.0121891
-0.00335046
-0.012468
-0.0155965
-0.0132558
-0.00805186
-0.00171922
0.00466496
0.0227963
0.0389509
0.054551
0.0657598
0.0690173
0.0625251
0.0490545
0.0308504
0.0121199
-0.00369204
-0.0140613
-0.017132
-0.0144473
-0.00870574
-0.00182632
0.0045624
0.0224827
0.0388966
0.0536403
0.0636576
0.0660907
0.0595624
0.0453714
0.0272712
0.00947584
-0.00506161
-0.0141489
-0.0171319
-0.0143751
-0.00876613
-0.00186837
0.00451624
0.0221699
0.0382113
0.0522079
0.0594522
0.0609183
0.0539338
0.0392951
0.0220808
0.00580191
-0.0074232
-0.0158733
-0.0184706
-0.0150886
-0.00919487
-0.0019409
0.00430142
0.0210476
0.0355351
0.047843
0.052523
0.053291
0.0463392
0.03296
0.0177403
0.00282464
-0.00903567
-0.0167734
-0.0187869
-0.0153811
-0.00931657
-0.00194903
0.00407744
0.0198622
0.0333537
0.0442385
0.0484416
0.0466827
0.0391994
0.0325139
0.0177859
0.0024668
-0.0109164
-0.0182188
-0.0197287
-0.0157561
-0.00958843
-0.00200806
0.00403095
0.0197129
0.0331034
0.0440181
0.0468881
0.0425596
0.0341036
0.0276284
0.0145694
0.000604121
-0.0110772
-0.0179914
-0.0195867
-0.0156554
-0.00959466
-0.00203389
0.00372497
0.0182896
0.0304712
0.0407228
0.0448362
0.0427047
0.0338947
0.0217407
0.00928108
-0.00234823
-0.012372
-0.0185852
-0.0199278
-0.0159958
-0.00979742
-0.00206178
0.00346057
0.0168123
0.0278516
0.036591
0.0402216
0.0389081
0.0306729
0.0170922
0.00521232
-0.00502411
-0.0135576
-0.0189341
-0.0198888
-0.0160247
-0.00979531
-0.00205222
0.00342791
0.0166215
0.0275537
0.0362763
0.0367413
0.0339114
0.026804
0.0164767
0.0047206
-0.00620817
-0.0146949
-0.019452
-0.0201944
-0.016262
-0.0100849
-0.00203323
0.00306736
0.0148346
0.0242389
0.0323489
0.0330234
0.0299439
0.0232357
0.0137544
0.00266247
-0.0073748
-0.0145658
-0.0182588
-0.0187371
-0.0159543
-0.0102361
-0.00200836
0.00274838
0.0133057
0.0214058
0.0291363
0.0326963
0.0301434
0.022903
0.0129646
0.00183934
-0.00792075
-0.0145927
-0.0181422
-0.0175919
-0.0158748
-0.0104227
-0.00195471
0.00259359
0.0126954
0.0205247
0.028006
0.0304055
0.0278856
0.0211614
0.0116105
0.00137226
-0.00774102
-0.0142434
-0.0173093
-0.0167758
-0.015092
-0.00964365
-0.00181616
0.00255458
0.0126331
0.0205426
0.0274293
0.0282351
0.0252947
0.0188802
0.0103464
0.00115513
-0.00763223
-0.0141946
-0.0173032
-0.0167578
-0.0138283
-0.00877375
-0.00169586
0.0025437
0.012356
0.0198124
0.0262385
0.0270847
0.0233391
0.0169368
0.00899278
0.000709646
-0.00745601
-0.0135396
-0.0161888
-0.0158692
-0.0129716
-0.00832064
-0.00163932
0.00249779
0.0121693
0.0193959
0.0258009
0.027337
0.0239763
0.0169714
0.00843513
0.000310638
-0.00747065
-0.0132857
-0.0159602
-0.0157055
-0.0126364
-0.0080173
-0.00161064
0.002652
0.0125215
0.018896
0.0260463
0.0273982
0.0244208
0.0174406
0.00844838
0.00012801
-0.00717727
-0.0126644
-0.0151886
-0.0150608
-0.0122045
-0.00772849
-0.00153537
0.00289455
0.0137
0.0192893
0.026898
0.0279365
0.0250183
0.018122
0.00911296
0.000338131
-0.00718442
-0.0125863
-0.0151761
-0.0151632
-0.0120752
-0.00767632
-0.00149934
0.00296606
0.015683
0.0228296
0.0283411
0.0286702
0.0249916
0.0180666
0.00951515
0.000800171
-0.00673708
-0.0124231
-0.0151301
-0.0150409
-0.0120672
-0.00770616
-0.00149675
0.00305982
0.016046
0.0257454
0.0313479
0.0311905
0.026713
0.0189082
0.0101636
0.00121145
-0.00674613
-0.0124165
-0.0153114
-0.0151515
-0.0117913
-0.00750319
-0.001495
0.00370084
0.0193497
0.0298296
0.0345077
0.0334152
0.0274741
0.0198954
0.0103688
0.00148862
-0.00632552
-0.0121209
-0.0149159
-0.0146557
-0.0113659
-0.00720105
-0.00148023
0.00449149
0.0230592
0.0327038
0.0348709
0.035075
0.0301152
0.021926
0.0116676
0.00195986
-0.00653881
-0.0127252
-0.0156617
-0.0150821
-0.0113347
-0.00720071
-0.00149506
0.00469895
0.0238476
0.0360088
0.0412032
0.0411232
0.0348513
0.0248489
0.0135141
0.00236483
-0.00714741
-0.0137826
-0.01641
-0.0155595
-0.0116482
-0.00737737
-0.0015041
0.00457166
0.0242684
0.0408443
0.0506828
0.0506032
0.0419469
0.0285695
0.0148137
0.00206211
-0.0085943
-0.0155559
-0.0183105
-0.0173496
-0.0130598
-0.00845106
-0.00162545
0.00528048
0.027561
0.0457571
0.057237
0.0554867
0.0468652
0.0316544
0.0152378
0.00137797
-0.00919274
-0.016037
-0.0190242
-0.0188836
-0.0156465
-0.0102773
-0.00184287
0.00548065
0.0289954
0.0459079
0.055275
0.0555618
0.0472264
0.0324656
0.0162708
0.000612497
-0.011698
-0.0198449
-0.0232027
-0.0228995
-0.0189495
-0.0123122
-0.00221271
0.00590376
0.0311171
0.0513558
0.0639719
0.0657809
0.0533096
0.0347413
0.0169477
-0.00121524
-0.0157772
-0.0251583
-0.0286278
-0.0269415
-0.0205861
-0.0133298
-0.00270359
0.00632417
0.0333801
0.0567321
0.0728077
0.0763379
0.0598094
0.0377953
0.0163782
-0.00259967
-0.0166328
-0.0259311
-0.0292258
-0.0276949
-0.0211256
-0.0153802
-0.0032607
0.00668061
0.0335442
0.052398
0.0714367
0.0778277
0.0607258
0.036486
0.0137548
-0.0068901
-0.0231234
-0.0335404
-0.0365294
-0.0343986
-0.0261207
-0.0164758
-0.00331202
0.0071524
0.0349081
0.0560929
0.0708571
0.0750276
0.0566281
0.0343788
0.010246
-0.0135805
-0.0311082
-0.0439153
-0.047184
-0.0437071
-0.0333113
-0.0200751
-0.0039526
0.00732141
0.0372951
0.059097
0.073523
0.0737464
0.0519597
0.0257638
0.00630987
-0.0186282
-0.0318449
-0.0455355
-0.0546538
-0.0507116
-0.0402804
-0.0246326
-0.0048644
0.00709657
0.0369765
0.0600396
0.0758526
0.069899
0.0406532
0.0176436
0.0059104
-0.0187853
-0.0389967
-0.0548244
-0.0554269
-0.051025
-0.0404771
-0.0260123
-0.00493931
0.00680183
0.0358139
0.0601644
0.0738611
0.0612886
0.0263236
0.0150218
0.000801878
-0.0252814
-0.049723
-0.0664587
-0.0650096
-0.0606314
-0.0463138
-0.0285129
-0.00571458
0.0060278
0.0323762
0.0569062
0.0679304
0.0524444
0.0200505
0.0120749
-0.00991955
-0.0351793
-0.0607564
-0.0671647
-0.0753944
-0.0712549
-0.0537713
-0.0325047
-0.00650155
0.00512735
0.0274754
0.0480885
0.058294
0.0429453
0.00764728
0.000975741
-0.0216314
-0.0448371
-0.0629245
-0.0768539
-0.0868578
-0.0811611
-0.058045
-0.0320388
-0.00642888
0.00405369
0.021171
0.0368697
0.043803
0.0281906
-0.00794402
-0.0165726
-0.024261
-0.0454836
-0.0699481
-0.0884726
-0.0927063
-0.0761611
-0.0559377
-0.0350471
-0.00701009
0.00318181
0.0160978
0.0257162
0.0273545
0.0136031
-0.0226344
-0.0304333
-0.0310823
-0.0535258
-0.0797443
-0.0962629
-0.0902618
-0.077651
-0.0594006
-0.0370984
-0.00761515
0.00255363
0.0115647
0.0150692
0.00819628
0.000547476
-0.0259464
-0.0339185
-0.0417227
-0.0581263
-0.0842936
-0.094423
-0.0954948
-0.082006
-0.0627519
-0.0376725
-0.00788077
0.00154124
0.00632682
0.00618191
-0.00515786
-0.00769975
-0.0320097
-0.0418686
-0.0509895
-0.0659767
-0.0862206
-0.0974834
-0.101883
-0.0873245
-0.0632293
-0.0384168
-0.00780184
0.000622534
0.00308246
0.00405042
-0.00747692
-0.00841989
-0.0380285
-0.0505794
-0.0553547
-0.0718638
-0.0887273
-0.101475
-0.107296
-0.0917918
-0.0682789
-0.0407952
-0.0083305
-4.86594e-05
-0.000225353
-0.00262423
-0.0152957
-0.0166277
-0.0397475
-0.0568112
-0.0619498
-0.0734365
-0.0892594
-0.101888
-0.104567
-0.0907418
-0.0713823
-0.0423993
-0.00849904
-0.000567156
-0.00313223
-0.00770635
-0.021269
-0.0253458
-0.043564
-0.0577962
-0.0664983
-0.0733302
-0.0864818
-0.0980787
-0.0989586
-0.0908644
-0.0730373
-0.0431888
-0.0083608
-0.000896747
-0.00492989
-0.0120369
-0.0228086
-0.0276265
-0.0460766
-0.0572937
-0.0690763
-0.0701375
-0.0788566
-0.0883707
-0.0925456
-0.0908854
-0.0706082
-0.0412387
-0.00777245
-0.00146554
-0.00728264
-0.015068
-0.0271785
-0.0318973
-0.0504015
-0.0592686
-0.0661708
-0.0657164
-0.0661931
-0.0755277
-0.0876835
-0.0870678
-0.0654464
-0.0381424
-0.00705789
-0.00209738
-0.0099687
-0.0187871
-0.0320022
-0.0375784
-0.0508911
-0.058488
-0.0628625
-0.0602748
-0.0526475
-0.056128
-0.0729719
-0.0762562
-0.0559781
-0.0335751
-0.00628037
-0.00272527
-0.0125192
-0.0208579
-0.0327043
-0.0386613
-0.0510406
-0.0581894
-0.0619737
-0.0542458
-0.0395161
-0.0338764
-0.0519382
-0.0602847
-0.0440624
-0.0284111
-0.0053167
-0.00324073
-0.014827
-0.0236878
-0.0355793
-0.0422777
-0.0536069
-0.0575629
-0.0549828
-0.0472615
-0.0257714
-0.0115799
-0.0291536
-0.0423511
-0.0320419
-0.0212776
-0.00388743
-0.003524
-0.0165529
-0.0268402
-0.0386668
-0.0453
-0.0546087
-0.0546949
-0.0457949
-0.0375092
-0.0125838
0.00843641
-0.00560326
-0.0205861
-0.0216553
-0.014037
-0.00245081
-0.00363701
-0.017306
-0.0292667
-0.0391808
-0.0477456
-0.0540311
-0.04888
-0.0399799
-0.0266964
0.00115261
0.0248217
0.0138708
-0.0023581
-0.00897284
-0.00667831
-0.00106291
-0.00401319
-0.0189072
-0.0312193
-0.0411584
-0.0469229
-0.0527154
-0.0411264
-0.0378453
-0.015267
0.0108783
0.0312688
0.0210215
0.00584202
0.00179238
8.30171e-05
0.000257583
-0.00423079
-0.0200669
-0.0323537
-0.0429719
-0.0468505
-0.0528732
-0.03569
-0.028444
-0.00231856
0.020414
0.0420281
0.034861
0.0207044
0.0124858
0.00561461
0.00126215
-0.00429453
-0.0209708
-0.0344191
-0.0438643
-0.0448986
-0.050389
-0.0290522
-0.0184646
0.00997234
0.0307139
0.0521665
0.048698
0.034757
0.0216744
0.0106304
0.00196941
-0.00428046
-0.0213026
-0.0355087
-0.0429454
-0.0396716
-0.0443544
-0.022024
-0.0175224
0.0140945
0.0387017
0.0595615
0.0573441
0.0431596
0.0284906
0.0151986
0.00311741
-0.0041815
-0.0212181