# vtk DataFile Version 3.0
Grid data
ASCII
DATASET STRUCTURED_POINTS
DIMENSIONS 16 128 1
ORIGIN 0 0 0
SPACING 0.015625 0.0078125 1
POINT_DATA 2048
SCALARS rho double
LOOKUP_TABLE default
1.03285
1.03109
1.03096
1.03056
1.03116
1.03198
1.03312
1.0308
1.02756
1.02651
1.02635
1.0258
1.02579
1.02553
1.02484
1.02546
1.02983
1.02788
1.028
1.02719
1.0262
1.02662
1.02712
1.02536
1.02231
1.0215
1.02137
1.02174
1.02161
1.02196
1.02123
1.0219
1.02764
1.02566
1.02564
1.02398
1.0224
1.02055
1.01997
1.02094
1.02157
1.02094
1.02084
1.02119
1.0209
1.02045
1.01982
1.02095
1.02796
1.02585
1.02574
1.02326
1.01954
1.01495
1.01304
1.01398
1.01489
1.01467
1.01469
1.01578
1.01682
1.01739
1.01727
1.01862
1.03318
1.03092
1.03067
1.02577
1.01783
1.01006
1.00594
1.00566
1.00608
1.00633
1.00682
1.00935
1.01353
1.01684
1.017
1.0181
1.03482
1.03245
1.03217
1.02684
1.01846
1.00855
1.00081
0.999112
0.998756
0.999537
1.00052
1.00482
1.01209
1.01623
1.017
1.01858
1.03461
1.03223
1.03216
1.02898
1.02048
1.00894
1.00069
0.998597
0.998015
0.998996
0.999993
1.0042
1.01083
1.01541
1.01671
1.01883
1.03862
1.03599
1.03545
1.03053
1.01976
1.00608
0.997122
0.994888
0.993227
0.993736
0.995238
1.00172
1.01008
1.01572
1.01756
1.01962
1.04172
1.03913
1.03798
1.03104
1.01707
1.00038
0.990809
0.988549
0.986189
0.986333
0.98878
0.99808
1.01038
1.01834
1.02041
1.02266
1.04206
1.03972
1.03846
1.03158
1.01568
0.996618
0.985716
0.982851
0.980034
0.980044
0.983125
0.994337
1.00844
1.01771
1.02033
1.02257
1.04389
1.04146
1.04041
1.03325
1.01623
0.996792
0.98556
0.982635
0.979584
0.979659
0.982317
0.992956
1.00569
1.01656
1.02003
1.02198
1.04475
1.04206
1.04062
1.03261
1.01353
0.992491
0.9803
0.977533
0.974906
0.973719
0.97837
0.989697
1.00431
1.01722
1.02276
1.02469
1.04486
1.04194
1.03996
1.0308
1.0096
0.986199
0.974839
0.971966
0.968565
0.966323
0.972835
0.986847
1.00418
1.01814
1.02598
1.02737
1.04542
1.04258
1.04051
1.03041
1.00704
0.982273
0.970266
0.967893
0.963051
0.960331
0.968108
0.983751
1.00226
1.01738
1.02566
1.02703
1.04816
1.04531
1.04277
1.03125
1.00617
0.982012
0.969913
0.967645
0.962369
0.959366
0.966839
0.981838
1.00001
1.01614
1.02523
1.02677
1.04837
1.04539
1.04256
1.03009
1.00412
0.979168
0.966807
0.964702
0.959675
0.956524
0.964309
0.980116
0.999363
1.0164
1.02588
1.02755
1.04765
1.04456
1.04138
1.02809
1.00165
0.976219
0.963465
0.961112
0.955894
0.952739
0.961315
0.979331
1.00009
1.01764
1.02736
1.02905
1.04867
1.04559
1.04233
1.02814
1.00042
0.973786
0.960577
0.958005
0.952771
0.949766
0.959561
0.97839
1.00011
1.01822
1.02788
1.02954
1.05083
1.04768
1.04433
1.0293
0.999976
0.973009
0.960085
0.95763
0.952626
0.949406
0.959116
0.97765
0.999681
1.0184
1.028
1.02958
1.05225
1.04888
1.04537
1.02953
0.999164
0.971248
0.958295
0.955932
0.951056
0.948147
0.958413
0.977721
0.999978
1.01888
1.02858
1.03017
1.05294
1.04941
1.04559
1.0294
0.999005
0.97012
0.956443
0.953457
0.94845
0.947268
0.95852
0.978381
1.00073
1.01969
1.0296
1.03126
1.05435
1.05085
1.04688
1.02984
0.998688
0.969179
0.954628
0.951
0.946198
0.946197
0.958204
0.97858
1.00127
1.0204
1.03033
1.03199
1.05512
1.05177
1.04785
1.03037
0.998835
0.96919
0.954543
0.950883
0.946087
0.946124
0.957995
0.978486
1.00156
1.0207
1.03044
1.03202
1.05578
1.05254
1.04835
1.02982
0.999133
0.970032
0.952952
0.94833
0.943968
0.945201
0.957621
0.978193
1.00135
1.02066
1.03052
1.03213
1.05669
1.05396
1.04897
1.02835
0.99958
0.971819
0.951381
0.944348
0.940334
0.943694
0.957002
0.978123
1.00143
1.02083
1.03099
1.03269
1.05755
1.05585
1.04858
1.02724
0.999451
0.972702
0.951627
0.941128
0.937199
0.941895
0.956304
0.97797
1.00175
1.02141
1.03174
1.03348
1.0582
1.05686
1.04819
1.027
0.999346
0.972739
0.951663
0.939988
0.936043
0.941484
0.956151
0.977994
1.00219
1.0222
1.03253
1.03424
1.05936
1.05803
1.04817
1.02667
0.998985
0.972351
0.951056
0.938403
0.934253
0.940231
0.955537
0.977891
1.00229
1.02237
1.03272
1.03441
1.06078
1.05922
1.04868
1.02671
0.998813
0.971795
0.950186
0.937054
0.932849
0.939206
0.955028
0.977795
1.00243
1.02246
1.0328
1.0345
1.06178
1.06012
1.04915
1.02674
0.998608
0.971309
0.949496
0.936292
0.932197
0.938727
0.954739
0.977686
1.0025
1.02276
1.0332
1.03492
1.06177
1.06019
1.04941
1.02687
0.998635
0.971267
0.949438
0.936213
0.932148
0.938689
0.954709
0.977579
1.0025
1.02294
1.03352
1.0353
1.06233
1.06077
1.04999
1.02709
0.998563
0.970879
0.94889
0.935643
0.931666
0.938292
0.954398
0.977387
1.00248
1.02319
1.0338
1.03557
1.06359
1.06192
1.05091
1.02751
0.998563
0.970493
0.948307
0.935104
0.931456
0.93807
0.954042
0.977145
1.00251
1.02351
1.03433
1.03615
1.06482
1.06292
1.05144
1.02803
0.998721
0.970219
0.947757
0.9345
0.930829
0.937482
0.953569
0.976893
1.00261
1.02391
1.035
1.03688
1.06733
1.06519
1.05294
1.0289
0.999001
0.970112
0.947535
0.934095
0.930166
0.936805
0.953048
0.976653
1.00274
1.02441
1.03558
1.03744
1.07053
1.06827
1.055
1.02964
0.999146
0.969977
0.94703
0.933386
0.929423
0.936082
0.952499
0.97639
1.00281
1.02476
1.03608
1.03797
1.07557
1.07292
1.05806
1.03116
0.999573
0.969966
0.946932
0.932995
0.928631
0.935332
0.952002
0.976167
1.00282
1.0249
1.03643
1.03837
1.07874
1.07573
1.05983
1.03208
0.999824
0.969721
0.946133
0.931972
0.927765
0.93462
0.951548
0.976055
1.0032
1.02613
1.03825
1.04031
1.09145
1.08773
1.06836
1.0364
1.0011
0.969353
0.945029
0.930814
0.927191
0.934281
0.951302
0.976291
1.00476
1.02924
1.04234
1.04455
1.11705
1.11227
1.08674
1.04596
1.00405
0.969345
0.944741
0.930681
0.926224
0.933471
0.951043
0.976701
1.00676
1.03319
1.04729
1.04961
1.15085
1.14447
1.11023
1.05758
1.0072
0.968983
0.943378
0.92924
0.925993
0.933362
0.950988
0.977324
1.00747
1.03423
1.04946
1.05205
1.18992
1.18129
1.1354
1.06834
1.00874
0.968708
0.942127
0.927509
0.924711
0.932326
0.950427
0.978163
1.01098
1.04111
1.05831
1.06109
1.21811
1.2067
1.14986
1.07312
1.01059
0.969705
0.94159
0.926597
0.923142
0.930748
0.94978
0.978598
1.01389
1.04728
1.06706
1.07045
1.32454
1.3037
1.21135
1.09795
1.01175
0.977043
0.943422
0.92527
0.921319
0.928607
0.948488
0.980225
1.0223
1.06583
1.09479
1.10021
1.48667
1.454
1.31591
1.14255
1.01962
0.98619
0.946452
0.92382
0.91939
0.92668
0.947536
0.982373
1.03357
1.08962
1.12876
1.13618
1.63733
1.59143
1.41183
1.19165
1.03406
0.988533
0.947918
0.922656
0.918744
0.925773
0.947735
0.983066
1.03707
1.10061
1.14633
1.15522
1.71974
1.66173
1.45623
1.21178
1.03912
0.989965
0.948489
0.922478
0.91821
0.926975
0.9533
0.982038
1.05853
1.15329
1.22322
1.23717
1.91751
1.85672
1.61909
1.30192
1.06751
0.991211
0.947553
0.920707
0.919058
0.928949
0.961096
0.987397
1.08441
1.21939
1.32184
1.34333
2.00409
1.93907
1.71613
1.38493
1.10186
1.0002
0.946076
0.917717
0.920179
0.930214
0.966154
0.994718
1.09891
1.25216
1.37313
1.40053
2.01971
1.96281
1.74093
1.41893
1.12435
1.01786
0.94242
0.914748
0.920503
0.929603
0.96583
1.00848
1.1591
1.38222
1.55452
1.59734
2.06619
2.00164
1.76007
1.42415
1.13018
1.02587
0.943248
0.912838
0.917526
0.928121
0.971097
1.03859
1.24576
1.51529
1.7166
1.76944
2.07059
2.00639
1.77104
1.4251
1.12821
1.02379
0.944611
0.911881
0.9133
0.926594
0.978847
1.06248
1.30606
1.59524
1.80231
1.85812
2.10368
2.03475
1.78154
1.42605
1.12484
1.01279
0.950723
0.913538
0.907651
0.926337
0.984227
1.06627
1.30971
1.60133
1.81578
1.87281
2.11186
2.04101
1.7832
1.42639
1.12394
0.99633
0.957205
0.917085
0.902974
0.92427
0.986199
1.07672
1.34052
1.65983
1.8985
1.96029
2.1207
2.04845
1.78559
1.42511
1.12225
0.993354
0.957548
0.918367
0.902462
0.923583
0.982919
1.08348
1.36305
1.69063
1.93484
2.00736
2.12283
2.05002
1.7856
1.42173
1.11774
0.992858
0.958022
0.919931
0.904859
0.927914
0.972586
1.08373
1.3659
1.69398
1.94008
2.01151
2.13057
2.05599
1.78495
1.41916
1.11441
0.992124
0.958473
0.9204
0.906945
0.929324
0.963854
1.07927
1.35599
1.68982
1.95496
2.03143
2.13723
2.06047
1.78609
1.42028
1.1145
0.991903
0.958154
0.920569
0.907259
0.928683
0.96291
1.06953
1.33921
1.67776
1.96057
2.04457
2.14826
2.06878
1.78718
1.42286
1.11988
0.992363
0.956577
0.918425
0.905209
0.924255
0.955204
1.05681
1.32066
1.6638
1.95875
2.04499
2.15997
2.07974
1.79299
1.43106
1.1324
0.988604
0.946586
0.913425
0.902515
0.918982
0.947532
1.0461
1.30655
1.65452
1.95941
2.04958
2.16375
2.08498
1.80385
1.44198
1.14316
0.977582
0.927326
0.911372
0.90241
0.917369
0.946193
1.04463
1.30501
1.65314
1.96784
2.0638
2.17157
2.09397
1.81421
1.44754
1.14324
0.964762
0.91636
0.904711
0.899073
0.915603
0.942674
1.03839
1.294
1.64743
1.98043
2.08283
2.17849
2.1048
1.83222
1.4583
1.141
0.955346
0.914084
0.903794
0.898359
0.912423
0.938109
1.03153
1.28618
1.64809
1.9944
2.10052
2.18919
2.12025
1.85655
1.46787
1.13897
0.949947
0.9096
0.900026
0.89599
0.908969
0.934201
1.02797
1.28954
1.66373
2.01283
2.11698
2.19794
2.1368
1.89218
1.49349
1.14689
0.948469
0.904123
0.895275
0.89264
0.905774
0.932603
1.03132
1.3047
1.68854
2.03134
2.13119
2.20185
2.1495
1.92701
1.5212
1.15925
0.950294
0.898386
0.889636
0.888829
0.903572
0.933098
1.04025
1.32536
1.71637
2.04713
2.14159
2.20184
2.15567
1.94469
1.53041
1.16315
0.95233
0.894417
0.883459
0.887765
0.903645
0.933664
1.04241
1.33426
1.72977
2.05825
2.15034
2.20032
2.1757
2.00577
1.58068
1.19111
0.961756
0.895219
0.878045
0.885264
0.902496
0.936079
1.05556
1.37984
1.79006
2.08023
2.15585
2.20243
2.18644
2.04749
1.64516
1.24358
0.975239
0.898188
0.874903
0.882933
0.902886
0.948566
1.09614
1.44779
1.85806
2.09898
2.1574
2.20634
2.18683
2.05074
1.71347
1.32161
1.02557
0.909914
0.875835
0.878328
0.902253
0.953585
1.15107
1.50528
1.90094
2.1113
2.15848
2.21961
2.20548
2.08683
1.77221
1.39754
1.09449
0.922291
0.878696
0.87411
0.900359
0.954024
1.15371
1.51074
1.90969
2.11662
2.16291
2.23332
2.22427
2.11719
1.78557
1.4083
1.09878
0.923117
0.879174
0.872128
0.901392
0.960827
1.18792
1.56296
1.96861
2.13995
2.16431
2.24669
2.2383
2.14566
1.86081
1.48396
1.14691
0.935439
0.883072
0.878069
0.915592
0.98938
1.24815
1.63725
2.02481
2.16093
2.17338
2.25515
2.24411
2.16614
1.93558
1.58724
1.23129
0.979434
0.902265
0.887711
0.941678
1.03946
1.33133
1.72398
2.05807
2.16845
2.17985
2.27822
2.26472
2.18084
1.98002
1.67088
1.31829
1.03621
0.932489
0.887864
0.944924
1.10655
1.42972
1.8109
2.0901
2.17807
2.18597
2.29864
2.2838
2.19411
1.98265
1.67889
1.33129
1.04769
0.952195
0.883039
0.971855
1.19035
1.53029
1.87907
2.10595
2.18919
2.20002
2.31195
2.29715
2.2103
2.0202
1.74589
1.41222
1.11563
0.955809
0.877064
1.01902
1.28062
1.62264
1.91273
2.12503
2.20495
2.21636
2.31535
2.30277
2.22499
2.05649
1.82274
1.5203
1.21565
0.988412
0.875095
1.06536
1.36972
1.70508
1.95843
2.14474
2.22234
2.2341
2.32868
2.31652
2.23736
2.06849
1.86454
1.62189
1.33907
1.08181
0.894994
1.15614
1.46397
1.75039
1.98806
2.16178
2.23735
2.24887
2.33737
2.32614
2.24987
2.09309
1.91079
1.70616
1.46768
1.22806
1.02535
1.28739
1.56834
1.81309
2.01349
2.16998
2.24527
2.2568
2.34246
2.33334
2.26196
2.11431
1.94863
1.77536
1.5892
1.40233
1.24805
1.44051
1.66467
1.86318
2.03418
2.18147
2.25404
2.26337
2.34412
2.33738
2.27136
2.12884
1.97512
1.8304
1.69297
1.5653
1.47943
1.57562
1.72689
1.88397
2.04893
2.19201
2.25738
2.26414
2.34247
2.33764
2.2774
2.14217
1.99585
1.86599
1.75733
1.67341
1.6346
1.67351
1.77636
1.911
2.06314
2.19875
2.25812
2.26361
2.34008
2.33607
2.27999
2.15196
2.00797
1.87777
1.7776
1.71156
1.69848
1.7312
1.81337
1.93245
2.07358
2.2024
2.25981
2.26564
2.33921
2.33469
2.28
2.15575
2.01604
1.88989
1.79835
1.74637
1.7409
1.76497
1.83494
1.94274
2.07703
2.20259
2.25974
2.26577
2.34522
2.33839
2.28105
2.15553
2.01798
1.89641
1.80982
1.75987
1.75035
1.77317
1.84042
1.94578
2.07698
2.20023
2.26004
2.26805
2.35381
2.34632
2.28395
2.15344
2.01531
1.89643
1.81231
1.76522
1.75358
1.77545
1.84002
1.94335
2.07235
2.1958
2.25912
2.26834
2.37197
2.36202
2.29219
2.15255
2.0084
1.88935
1.80642
1.76179
1.74996
1.77086
1.83432
1.93698
2.06509
2.19201
2.26232
2.27363
2.40193
2.38428
2.30318
2.15314
1.99833
1.87697
1.7946
1.75267
1.74165
1.76197
1.82492
1.92808
2.05825
2.19063
2.26497
2.27688
2.44429
2.41775
2.31563
2.15148
1.9867
1.86217
1.77996
1.74014
1.73014
1.7505
1.81372
1.91857
2.0546
2.19358
2.27372
2.28717
2.48734
2.45043
2.32211
2.14569
1.97552
1.84789
1.76507
1.72665
1.71724
1.73836
1.80281
1.91123
2.05507
2.19998
2.28249
2.29688
2.51514
2.47276
2.32299
2.1384
1.96584
1.83624
1.7516
1.71409
1.70461
1.72715
1.79301
1.9062
2.05819
2.21153
2.3064
2.32495
2.51688
2.47824
2.32483
2.1333
1.95897
1.82757
1.74136
1.70416
1.69296
1.71821
1.78439
1.90225
2.062
2.22476
2.33401
2.35878
2.49364
2.46435
2.3282
2.13292
1.95661
1.82158
1.73098
1.6996
1.68456
1.71069
1.78017
1.89954
2.0641
2.23643
2.36174
2.39222
2.45378
2.43872
2.33084
2.13849
1.95887
1.81957
1.72555
1.69731
1.68188
1.70726
1.77536
1.89679
2.06445
2.24596
2.38213
2.415
2.41157
2.41104
2.33001
2.14812
1.96385
1.82018
1.72474
1.69725
1.68244
1.70754
1.76959
1.89311
2.06521
2.25405
2.39049
2.42127
2.38311
2.38995
2.32861
2.15753
1.96916
1.8202
1.72412
1.69687
1.68324
1.70812
1.76235
1.88883
2.06624
2.25918
2.38678
2.41325
2.38278
2.38352
2.32379
2.16329
1.9745
1.81893
1.7224
1.69537
1.68184
1.70514
1.75898
1.8874
2.06776
2.25787
2.37273
2.39363
2.40942
2.39486
2.31899
2.16389
1.97682
1.8167
1.71845
1.69128
1.67737
1.69954
1.7527
1.88506
2.06672
2.25115
2.35448
2.37159
2.46089
2.42691
2.32833
2.16166
1.97336
1.8145
1.7135
1.68593
1.67161
1.69478
1.746
1.88353
2.06525
2.24634
2.34836
2.36605
2.538
2.48332
2.34959
2.153
1.95597
1.80271
1.70597
1.67977
1.66474
1.69089
1.73633
1.87584
2.06181
2.25266
2.37285
2.39811
2.62631
2.55127
2.36365
2.13312
1.92491
1.77884
1.69209
1.66819
1.65436
1.68302
1.72312
1.85859
2.05275
2.264
2.41414
2.45581
2.70628
2.6099
2.36286
2.10529
1.88903
1.74815
1.67053
1.6487
1.63932
1.66774
1.70509
1.83458
2.03633
2.26967
2.45591
2.51558
2.73358
2.63128
2.36127
2.08189
1.86245
1.71832
1.64315
1.62542
1.61902
1.64548
1.68065
1.80586
2.01533
2.26648
2.47467
2.5443
2.67854
2.61873
2.38481
2.07797
1.8468
1.70071
1.61729
1.60109
1.59543
1.62111
1.65461
1.78324
1.99589
2.25274
2.45716
2.52065
2.61473
2.60542
2.42101
2.07994
1.8273
1.67802
1.59573
1.57823
1.57327
1.5985
1.63215
1.76287
1.97716
2.24147
2.43786
2.48978
2.61092
2.60209
2.44735
2.11319
1.82922
1.66721
1.58493
1.56202
1.55612
1.5816
1.61991
1.75357
1.97537
2.2564
2.45234
2.49613
2.64634
2.60176
2.44419
2.14457
1.84338
1.65689
1.58077
1.55363
1.54696
1.57285
1.61396
1.74005
1.98137
2.28422
2.49249
2.53971
2.71824
2.61774
2.39722
2.12791
1.85324
1.65442
1.58929
1.54731
1.54321
1.56709
1.60906
1.74221
1.99581
2.31349
2.5476
2.6248
2.79331
2.65114
2.33423
2.0681
1.83891
1.65902
1.59846
1.54948
1.54405
1.56735
1.60799
1.74544
1.99982
2.31592
2.60275
2.71398
2.83993
2.69002
2.31788
2.00335
1.79251
1.65773
1.5969
1.55167
1.54472
1.57067
1.60556
1.72933
1.97187
2.29049
2.63461
2.78625
2.89438
2.73892
2.31795
1.95357
1.72829
1.63567
1.58291
1.54315
1.53714
1.56466
1.59549
1.6938
1.92429
2.25958
2.66802
2.84717
2.90977
2.76435
2.31808
1.91692
1.67624
1.59233
1.55581
1.52037
1.51576
1.53998
1.57047
1.6513
1.87468
2.24659
2.70961
2.89646
2.94518
2.79416
2.31539
1.89182
1.63578
1.55969
1.51308
1.48279
1.48285
1.50421
1.53278
1.60758
1.83222
2.24912
2.76371
2.94945
2.99897
2.81855
2.29915
1.85783
1.6032
1.5368
1.47444
1.44148
1.4467
1.4674
1.49538
1.57733
1.80881
2.25643
2.80976
3.01828
3.06738
2.85848
2.28368
1.82528
1.58464
1.51562
1.44683
1.41491
1.41711
1.43455
1.46401
1.56843
1.77205
2.25232
2.86883
3.1203
3.21316
2.92645
2.26753
1.78674
1.58287
1.49719
1.42783
1.39625
1.3989
1.41774
1.44634
1.55928
1.74511
2.24231
2.94339
3.27148
3.40684
3.01036
2.25028
1.74436
1.56815
1.48666
1.41927
1.38764
1.38938
1.40837
1.43935
1.55915
1.71971
2.23394
3.03502
3.48466
3.69725
3.09838
2.19655
1.69296
1.5494
1.4875
1.4227
1.39191
1.39238
1.41186
1.44446
1.56086
1.69592
2.20039
3.11465
3.75553
4.07193
3.17362
2.10667
1.65792
1.52669
1.49139
1.42995
1.40074
1.40125
1.42391
1.45135
1.55475
1.68878
2.12292
3.14503
4.02332
4.34781
3.20242
2.01687
1.64176
1.51908
1.51254
1.45634
1.43189
1.43156
1.44982
1.47677
1.56048
1.69067
2.0398
3.13227
4.1923
4.49116
3.05984
1.9291
1.64996
1.55871
1.55107
1.50346
1.48716
1.48978
1.50483
1.52071
1.58192
1.68735
1.9472
2.98102
4.25649
4.43446
2.89625
1.80748
1.67289
1.64684
1.62253
1.5731
1.55308
1.55904
1.57162
1.58398
1.63307
1.70431
1.81921
2.71715
4.05074
3.94488
2.64876
1.75764
1.68841
1.72188
1.69743
1.64643
1.62201
1.62923
1.63674
1.64899
1.69076
1.70385
1.76529
2.38804
3.37204
3.36012
2.48626
1.77236
1.70076
1.73416
1.72351
1.69364
1.67408
1.67451
1.67264
1.67909
1.7359
1.7062
1.70987
2.10477
2.77782
2.54488
2.25326
1.74469
1.65135
1.69834
1.68089
1.67724
1.67511
1.6814
1.6728
1.67033
1.71958
1.69023
1.70541
1.8341
2.11867
2.15679
1.90978
1.6671
1.74195
1.8364
1.86404
1.891
1.92992
1.94312
1.92218
1.86939
1.78877
1.72206
1.65724
1.65461
1.7398
1.71385
1.53962
1.39122
1.51364
1.57923
1.56636
1.57985
1.60349
1.61428
1.59982
1.57081
1.5634
1.55482
1.43703
1.28362
1.31234
SCALARS u double
LOOKUP_TABLE default
0.00498994
0.0239029
0.0406682
0.0556597
0.0656465
0.0681196
0.0617474
0.0476947
0.0268032
0.00510824
-0.0120617
-0.0227378
-0.025866
-0.0209791
-0.01298
-0.00275921
0.00499866
0.0239547
0.040688
0.0562132
0.0664643
0.0692519
0.0623466
0.0474356
0.0265846
0.00498893
-0.0128548
-0.0237321
-0.0266478
-0.0217467
-0.0132155
-0.00278172
0.00499598
0.0241302
0.0415115
0.0573637
0.0676706
0.0703699
0.063017
0.0475973
0.0259641
0.00408374
-0.0144831
-0.0257015
-0.0281105
-0.0225354
-0.0135018
-0.00280515
0.00502391
0.0242338
0.0417574
0.0579428
0.0685721
0.0712036
0.0634243
0.0475318
0.0256433
0.0030256
-0.0159565
-0.0271004
-0.0294332
-0.0233752
-0.0139968
-0.00289116
0.00500425
0.0240016
0.0412769
0.0575844
0.0683836
0.0701985
0.0623223
0.045993
0.0241472
0.0016088
-0.0170303
-0.0275285
-0.0292216
-0.0231134
-0.0139366
-0.00289806
0.00494146
0.0239263
0.0412176
0.0573539
0.067331
0.0678261
0.0590754
0.0426505
0.0214506
1.53423e-07
-0.0177407
-0.0280498
-0.0296298
-0.023547
-0.0141753
-0.00293412
0.00493285
0.0239519
0.0410871
0.0561602
0.0646295
0.0650827
0.0558501
0.0393388
0.0188887
-0.00141105
-0.0180498
-0.0277515
-0.0291702
-0.0231915
-0.0140248
-0.00292492
0.00484971
0.0236181
0.0406506
0.0559593
0.0644754
0.0648557
0.0557125
0.0392644
0.0188657
-0.00139754
-0.0175503
-0.0270429
-0.0288062
-0.0227258
-0.0137233
-0.00287797
0.00463211
0.0226623
0.0384644
0.0536952
0.0610041
0.0602082
0.0510073
0.0352046
0.0163007
-0.00229503
-0.0171133
-0.0256326
-0.0275499
-0.0217828
-0.0132934
-0.002759
0.0043015
0.0208455
0.034978
0.0482587
0.0539138
0.0524943
0.0436306
0.0286601
0.0122316
-0.00367252
-0.0171673
-0.0256242
-0.0273509
-0.0217301
-0.0132864
-0.00273183
0.00398859
0.0190345
0.0318252
0.0425014
0.0457731
0.0436108
0.034785
0.0216965
0.0081469
-0.00518293
-0.0168416
-0.0238163
-0.0251779
-0.0206946
-0.0130815
-0.00270195
0.00379408
0.0182214
0.0303675
0.0401145
0.0404548
0.036538
0.0281104
0.0207953
0.00775982
-0.00557563
-0.016312
-0.0219286
-0.0231697
-0.0200105
-0.0130463
-0.00257429
0.00372671
0.017931
0.0299764
0.0396763
0.0400546
0.033358
0.0242499
0.0168512
0.00505075
-0.00626387
-0.0155297
-0.0205065
-0.0219593
-0.0192016
-0.0125149
-0.00237528
0.00332064
0.0160979
0.0266157
0.0352167
0.0361973
0.033093
0.024193
0.0129662
0.00200468
-0.00730679
-0.0153894
-0.0205092
-0.0216286
-0.018372
-0.0117141
-0.00213363
0.00288827
0.0140092
0.0226342
0.0296009
0.0307548
0.0286179
0.0208011
0.00910609
-0.00066213
-0.00870581
-0.0153238
-0.0188242
-0.0191192
-0.0161302
-0.0103104
-0.00189789
0.00260509
0.0129117
0.0203797
0.0256958
0.0257049
0.0227364
0.0161134
0.0078736
-0.00113168
-0.00904859
-0.0148543
-0.0175565
-0.0177237
-0.014574
-0.00934662
-0.00175194
0.00257934
0.012781
0.0202614
0.0252678
0.0236362
0.0190255
0.0123825
0.00520007
-0.00227158
-0.00922722
-0.0144348
-0.017412
-0.0178439
-0.0145033
-0.00929653
-0.00173635
0.00222825
0.0111316
0.0175751
0.022573
0.0230666
0.0186895
0.0118699
0.00482213
-0.00242864
-0.00894728
-0.0135426
-0.0157328
-0.0161942
-0.0129606
-0.00835463
-0.00154853
0.00187022
0.00935106
0.0144274
0.0187492
0.0193889
0.0158754
0.00986365
0.00333222
-0.00312356
-0.00862555
-0.012369
-0.0140961
-0.0136916
-0.011017
-0.00726722
-0.00131852
0.00167017
0.00838117
0.0128377
0.0159434
0.0154217
0.012446
0.0074177
0.00170382
-0.00381392
-0.00858506
-0.0112852
-0.0126766
-0.012134
-0.00979605
-0.00661251
-0.00114529
0.00167061
0.00837242
0.012823
0.0155619
0.0134245
0.00999676
0.00531147
0.000531206
-0.00416792
-0.0081959
-0.0110343
-0.0126396
-0.0121788
-0.0097995
-0.00661108
-0.00112728
0.00150514
0.00752753
0.0114124
0.0140527
0.0132172
0.00978812
0.00506532
0.000329531
-0.00428382
-0.00805439
-0.0099315
-0.0113737
-0.0111295
-0.00890783
-0.00607804
-0.00100559
0.00138249
0.00682332
0.0096314
0.0116519
0.0108775
0.0079595
0.00373946
-0.000328105
-0.00430557
-0.00738109
-0.0088248
-0.00987972
-0.010183
-0.00853869
-0.00589172
-0.000988984
0.00117374
0.00621045
0.00869406
0.00945085
0.00817048
0.00562945
0.00233639
-0.00087821
-0.0043496
-0.00727771
-0.00875312
-0.00961689
-0.00899075
-0.00736168
-0.00519781
-0.000832836
0.00103288
0.00627938
0.00877819
0.00853382
0.0062405
0.003814
0.00131635
-0.000993197
-0.00420614
-0.00660239
-0.00780271
-0.00825459
-0.00775782
-0.00633945
-0.00457914
-0.000668167
0.00078927
0.00542802
0.00757546
0.00660413
0.00599617
0.00361727
0.0010751
-0.00121861
-0.00395937
-0.00561158
-0.0063974
-0.0065988
-0.00648888
-0.00546332
-0.00397151
-0.000542971
0.000600451
0.00454342
0.00630008
0.00480788
0.00462393
0.00247052
0.000460145
-0.00144573
-0.00347728
-0.00457175
-0.00506262
-0.00539824
-0.00555816
-0.00509423
-0.00364737
-0.000506815
0.000456815
0.00383323
0.00535742
0.00372284
0.00323239
0.00129832
-0.000165746
-0.00148332
-0.00281085
-0.00395966
-0.00489318
-0.00524662
-0.0054478
-0.00452646
-0.00325576
-0.000415047
0.000408154
0.00382522
0.00534928
0.00347712
0.00255349
0.000638449
-0.000358926
-0.00145863
-0.00231275
-0.00324326
-0.004221
-0.0046393
-0.00476718
-0.00396258
-0.00283125
-0.000330288
0.000315208
0.00310378
0.00421379
0.00283586
0.0019603
0.000425506
-0.000469854
-0.00147954
-0.00235996
-0.00310592
-0.00355111
-0.00390123
-0.00400515
-0.00338118
-0.002371
-0.000251303
0.000274077
0.00260979
0.00314061
0.00232118
0.001626
0.000359198
-0.000542203
-0.00133465
-0.0021488
-0.00271043
-0.00306577
-0.00324113
-0.00329626
-0.00279004
-0.00194494
-0.000182985
0.000222762
0.00226582
0.00259535
0.00208507
0.00151269
0.000494856
-0.000383033
-0.00104542
-0.00181279
-0.00226986
-0.0025564
-0.00263636
-0.00269499
-0.0023003
-0.00157433
-0.000119202
0.000207434
0.00219513
0.00260083
0.00225073
0.00177026
0.000691505
7.64197e-05
-0.000680432
-0.00140035
-0.00185561
-0.00211721
-0.00217558
-0.00226395
-0.00202201
-0.00135835
-6.64453e-05
0.000207353
0.00228035
0.00303492
0.00300962
0.00270436
0.00155707
0.000796148
-0.00020465
-0.00097385
-0.00152016
-0.00186339
-0.00196253
-0.00209952
-0.00190531
-0.00125872
-3.57759e-05
0.000254398
0.0026395
0.00380343
0.00410989
0.00382774
0.00260749
0.00170344
0.000399892
-0.000589985
-0.00133114
-0.0018551
-0.00206212
-0.00229087
-0.00195216
-0.00118835
-1.34507e-05
0.000353601
0.00323622
0.00442741
0.00460268
0.00420397
0.00291661
0.00192357
0.000783975
-0.000417837
-0.00138235
-0.00216278
-0.00251947
-0.0027709
-0.00218861
-0.00119664
-2.54233e-06
0.000480655
0.00421808
0.00622475
0.0068163
0.00658474
0.0050022
0.00350906
0.00170327
-0.000144496
-0.00161624
-0.00246697
-0.00316165
-0.00327178
-0.0024957
-0.00135082
-5.03145e-05
0.000664388
0.00544788
0.00829358
0.00944409
0.00936561
0.0075278
0.00529294
0.00261303
-2.64813e-05
-0.00199214
-0.00339012
-0.00367957
-0.00340485
-0.00264587
-0.00156396
-0.000129891
0.000827291
0.00606521
0.00881927
0.010026
0.00989708
0.00787868
0.00545651
0.00266242
-0.000180043
-0.0028322
-0.00479813
-0.0049477
-0.00455813
-0.00351217
-0.0021683
-0.000244568
0.0012414
0.00793611
0.0123659
0.0143596
0.0141534
0.0113105
0.00759997
0.00348056
-0.000282994
-0.00328303
-0.00551963
-0.00655754
-0.00661315
-0.00542333
-0.0031468
-0.000369968
0.00157636
0.00960168
0.0154184
0.0185092
0.0183552
0.0149938
0.0101855
0.00437354
-0.000736965
-0.00457368
-0.00789654
-0.00916561
-0.00884498
-0.00733043
-0.00456223
-0.00072516
0.00166414
0.0100459
0.0163027
0.0195521
0.0190639
0.0152448
0.010413
0.00447921
-0.00173357
-0.00610947
-0.0108272
-0.0116899
-0.0110502
-0.00759571
-0.00569958
-0.00103617
0.00241164
0.0138324
0.0230593
0.0276447
0.0256897
0.0193839
0.0125101
0.00494751
-0.00223007
-0.00864311
-0.0110368
-0.0121465
-0.0122413
-0.0100574
-0.006084
-0.00106597
0.00305486
0.0171448
0.0294003
0.0360999
0.0338998
0.024937
0.0150073
0.00520296
-0.00381462
-0.0117757
-0.0141837
-0.0163567
-0.0166188
-0.0143784
-0.00861986
-0.00163136
0.00324425
0.0176728
0.0312789
0.0401465
0.0391629
0.0280684
0.0165811
0.00523326
-0.00451618
-0.012193
-0.0192756
-0.0235729
-0.0244479
-0.0198322
-0.0121652
-0.00240667
0.00326465
0.0176103
0.0299813
0.0390558
0.0388836
0.0288151
0.0168868
0.00451263
-0.00635472
-0.0159665
-0.0253857
-0.0314618
-0.0327759
-0.0261936
-0.0159528
-0.00318797
0.00391032
0.0204271
0.0350995
0.0452247
0.043604
0.0299869
0.016233
0.00387701
-0.00821613
-0.0197469
-0.0304234
-0.0373495
-0.0378373
-0.029532
-0.0180367
-0.00366981
0.0039158
0.0205081
0.0368608
0.0492927
0.0472024
0.0285269
0.0125187
0.00486582
-0.00875747
-0.0207005
-0.0308229
-0.0374805
-0.0373745
-0.0288209
-0.0173966
-0.00357506
0.00364691
0.018575
0.0354613
0.0502821
0.0469407
0.0250856
0.00803359
0.0057119
-0.00916268
-0.0207807
-0.0336777
-0.0435535
-0.045047
-0.0360029
-0.0221009
-0.0046664
0.00364687
0.0179306
0.0327681
0.0473205
0.0409279
0.0174699
0.00610954
0.00504014
-0.0093929
-0.0219093
-0.0380904
-0.0516651
-0.0530113
-0.0417488
-0.0250166
-0.00519701
0.00352901
0.0171763
0.0304793
0.0395637
0.0315839
0.00816552
0.00334504
0.00224886
-0.0100039
-0.0231908
-0.0417661
-0.0575742
-0.0570861
-0.0443096
-0.0262476
-0.00542577
0.00295166
0.0131257
0.0217245
0.0261032
0.0208133
0.002342
0.000158858
0.00126883
-0.0113941
-0.0224005
-0.0426252
-0.0603647
-0.0586756
-0.0447625
-0.0266696
-0.005506
0.00210637
0.00814821
0.0120616
0.0114158
0.0106708
-0.00356374
-0.00493274
-0.00312378
-0.0133764
-0.020886
-0.0396375
-0.0602596
-0.0596437
-0.0451609
-0.026484
-0.00541673
0.00126524
0.00338743
0.00490149
0.00219702
0.00427746
-0.00989485
-0.0117081
-0.00892183
-0.0154187
-0.0196748
-0.0332302
-0.0550368
-0.0561179
-0.0416665
-0.0245463
-0.00502919
0.00092841
0.00260938
0.00330737
0.00122065
0.00347999
-0.00999963
-0.0160459
-0.013691
-0.0157569
-0.016958
-0.025122
-0.0471625
-0.0501395
-0.0384857
-0.0229386
-0.00462046
0.000157331
-0.001728
-0.00314803
-0.00687823
-0.00569028
-0.0133743
-0.0171886
-0.0161988
-0.0149787
-0.0130529
-0.0166369
-0.0373706
-0.0429005
-0.0351002
-0.0217447
-0.0044442
-0.000336556
-0.00375893
-0.00740189
-0.0133157
-0.0154871
-0.0175326
-0.01838
-0.01671
-0.0132057
-0.00899811
-0.00878302
-0.0247924
-0.0307424
-0.0257105
-0.0173599
-0.00364483
-0.000670652
-0.00486956
-0.00829846
-0.0140022
-0.0168468
-0.0189721
-0.0185861
-0.0168379
-0.0126889
-0.00876866
-0.00739078