# vtk DataFile Version 3.0
Grid data
ASCII
DATASET STRUCTURED_POINTS
DIMENSIONS 30 300 1
ORIGIN 0 0 0
SPACING 0.00833333 0.00333333 1
POINT_DATA 9000
SCALARS rho double
LOOKUP_TABLE default
0.980209
0.980216
0.980232
0.980257
0.98029
0.980326
0.980358
0.980379
0.980385
0.980375
0.980352
0.980321
0.980286
0.980257
0.98024
0.98024
0.980257
0.980287
0.980321
0.980352
0.980375
0.980385
0.980379
0.980358
0.980326
0.98029
0.980258
0.980233
0.980217
0.980208
0.979276
0.979285
0.979301
0.979334
0.979383
0.979441
0.979495
0.979533
0.97955
0.979545
0.979523
0.979489
0.979449
0.979414
0.979393
0.979393
0.979414
0.97945
0.979489
0.979523
0.979544
0.979549
0.979532
0.979494
0.979441
0.979384
0.979336
0.979303
0.979287
0.979278
0.979521
0.97953
0.979547
0.979588
0.979649
0.979723
0.979794
0.979846
0.979872
0.979876
0.979861
0.979833
0.979797
0.979764
0.979744
0.979744
0.979765
0.979798
0.979833
0.979861
0.979875
0.979871
0.979844
0.979792
0.979722
0.97965
0.97959
0.979551
0.979534
0.979527
0.980325
0.980333
0.980352
0.980394
0.980456
0.980532
0.980604
0.980658
0.98069
0.9807
0.980691
0.980668
0.980636
0.980605
0.980586
0.980586
0.980606
0.980637
0.980668
0.980691
0.980699
0.980687
0.980655
0.9806
0.98053
0.980457
0.980397
0.980358
0.980341
0.980333
0.981338
0.981343
0.981356
0.981388
0.981437
0.981498
0.981557
0.981606
0.981638
0.981652
0.98165
0.981632
0.981605
0.981578
0.981561
0.981561
0.981579
0.981606
0.981633
0.981649
0.98165
0.981634
0.981601
0.981552
0.981494
0.981437
0.981392
0.981364
0.981353
0.981348
0.982244
0.982246
0.98225
0.982266
0.982295
0.982335
0.982378
0.982418
0.982449
0.982465
0.982465
0.982449
0.982422
0.982394
0.982377
0.982377
0.982395
0.982423
0.98245
0.982465
0.982463
0.982445
0.982413
0.982373
0.982331
0.982295
0.98227
0.982258
0.982256
0.982255
0.982885
0.982881
0.982874
0.982873
0.982882
0.982904
0.982936
0.982971
0.983003
0.983022
0.983023
0.983005
0.982975
0.982945
0.982926
0.982926
0.982945
0.982976
0.983005
0.983022
0.98302
0.982999
0.982966
0.982931
0.982901
0.982882
0.982877
0.982881
0.982891
0.982895
0.983196
0.983188
0.983171
0.983157
0.983153
0.983166
0.983196
0.983235
0.983271
0.983294
0.983296
0.983277
0.983245
0.983212
0.983193
0.983193
0.983213
0.983245
0.983277
0.983295
0.983292
0.983268
0.983231
0.983192
0.983164
0.983153
0.98316
0.983176
0.983195
0.983203
0.983245
0.983234
0.98321
0.983189
0.983179
0.983192
0.983226
0.983273
0.983317
0.983345
0.983349
0.98333
0.983299
0.983268
0.983248
0.983249
0.983268
0.983299
0.98333
0.983348
0.983343
0.983315
0.98327
0.983224
0.983191
0.98318
0.983191
0.983214
0.983239
0.98325
0.98314
0.983128
0.983102
0.983078
0.983068
0.983084
0.983123
0.983176
0.983226
0.983258
0.983265
0.98325
0.983222
0.983193
0.983176
0.983176
0.983193
0.983222
0.983249
0.983264
0.983257
0.983224
0.983174
0.983122
0.983084
0.983069
0.98308
0.983105
0.983132
0.983144
0.982986
0.982973
0.982946
0.982923
0.982914
0.982931
0.982973
0.983029
0.983081
0.983116
0.983127
0.983115
0.983092
0.983067
0.983053
0.983053
0.983067
0.983092
0.983115
0.983126
0.983115
0.98308
0.983028
0.982973
0.982932
0.982915
0.982925
0.982949
0.982976
0.982989
0.982847
0.982835
0.982808
0.982784
0.982774
0.982791
0.982831
0.982886
0.982939
0.982976
0.982989
0.982982
0.982962
0.982941
0.982927
0.982927
0.98294
0.982962
0.982981
0.982989
0.982975
0.982938
0.982886
0.982831
0.982791
0.982775
0.982786
0.98281
0.982837
0.98285
0.982753
0.982739
0.982711
0.982685
0.982672
0.982685
0.982723
0.982775
0.982827
0.982865
0.98288
0.982875
0.982857
0.982837
0.982825
0.982825
0.982837
0.982857
0.982875
0.98288
0.982864
0.982826
0.982775
0.982722
0.982686
0.982674
0.982687
0.982714
0.982742
0.982756
0.982699
0.982684
0.982653
0.982623
0.982605
0.982612
0.982645
0.982694
0.982745
0.982784
0.982801
0.982796
0.982778
0.982758
0.982745
0.982745
0.982758
0.982778
0.982796
0.9828
0.982783
0.982745
0.982694
0.982645
0.982613
0.982606
0.982625
0.982656
0.982687
0.982702
0.982667
0.982651
0.982617
0.982581
0.982556
0.982557
0.982585
0.982631
0.98268
0.982719
0.982736
0.982732
0.982713
0.98269
0.982675
0.982675
0.98269
0.982712
0.982732
0.982736
0.982718
0.98268
0.98263
0.982584
0.982557
0.982557
0.982582
0.982619
0.982654
0.98267
0.982639
0.982621
0.982582
0.98254
0.982509
0.982504
0.982526
0.982569
0.982617
0.982655
0.982673
0.982668
0.982647
0.982622
0.982606
0.982606
0.982622
0.982647
0.982668
0.982672
0.982654
0.982616
0.982568
0.982525
0.982504
0.98251
0.982542
0.982584
0.982624
0.982642
0.982601
0.982581
0.982538
0.98249
0.982453
0.982441
0.982458
0.982498
0.982544
0.982582
0.982601
0.982596
0.982574
0.982547
0.98253
0.98253
0.982547
0.982574
0.982596
0.9826
0.982582
0.982543
0.982497
0.982458
0.982441
0.982453
0.982491
0.982539
0.982583
0.982603
0.982549
0.982527
0.982479
0.982427
0.982384
0.982367
0.982379
0.982414
0.982459
0.982497
0.982517
0.982514
0.982493
0.982466
0.982448
0.982448
0.982466
0.982493
0.982514
0.982517
0.982497
0.982458
0.982414
0.982378
0.982367
0.982384
0.982428
0.982481
0.982529
0.982551
0.982485
0.982461
0.98241
0.982353
0.982304
0.982281
0.982288
0.98232
0.982364
0.982403
0.982425
0.982425
0.982406
0.982381
0.982364
0.982364
0.982381
0.982406
0.982425
0.982425
0.982402
0.982363
0.98232
0.982288
0.982281
0.982305
0.982354
0.982411
0.982462
0.982486
0.982414
0.982389
0.982335
0.982274
0.982219
0.98219
0.982192
0.98222
0.982262
0.982303
0.982329
0.982333
0.982319
0.982298
0.982283
0.982283
0.982298
0.982319
0.982333
0.982328
0.982302
0.982262
0.982219
0.982191
0.98219
0.982219
0.982274
0.982336
0.98239
0.982415
0.982342
0.982315
0.982259
0.982194
0.982134
0.982098
0.982094
0.982119
0.98216
0.982203
0.982233
0.982244
0.982237
0.982222
0.98221
0.98221
0.982222
0.982237
0.982244
0.982233
0.982202
0.98216
0.982118
0.982093
0.982098
0.982134
0.982194
0.98226
0.982316
0.982342
0.98227
0.982244
0.982185
0.982116
0.982051
0.982009
0.981999
0.98202
0.982061
0.982107
0.982143
0.982161
0.982163
0.982155
0.982147
0.982147
0.982155
0.982163
0.982161
0.982142
0.982106
0.982061
0.98202
0.981999
0.982009
0.982051
0.982117
0.982186
0.982244
0.982271
0.982202
0.982174
0.982115
0.982042
0.981972
0.981924
0.981909
0.981927
0.981967
0.982016
0.982058
0.982085
0.982096
0.982097
0.982094
0.982094
0.982097
0.982096
0.982085
0.982058
0.982015
0.981967
0.981926
0.981908
0.981924
0.981972
0.982042
0.982115
0.982175
0.982202
0.982135
0.982107
0.982046
0.98197
0.981895
0.981843
0.981822
0.981837
0.981878
0.981929
0.981978
0.982015
0.982036
0.982045
0.982048
0.982048
0.982045
0.982036
0.982015
0.981978
0.981929
0.981877
0.981836
0.981822
0.981842
0.981895
0.98197
0.982046
0.982107
0.982135
0.982069
0.98204
0.981977
0.981899
0.98182
0.981762
0.981738
0.981751
0.981791
0.981847
0.981902
0.981947
0.981979
0.981997
0.982004
0.982004
0.981997
0.981979
0.981948
0.981902
0.981846
0.981791
0.98175
0.981738
0.981762
0.981819
0.981899
0.981977
0.982041
0.982069
0.982002
0.981972
0.981907
0.981825
0.981743
0.981682
0.981655
0.981665
0.981707
0.981765
0.981827
0.981881
0.981921
0.981947
0.98196
0.98196
0.981947
0.981921
0.981881
0.981827
0.981765
0.981706
0.981665
0.981654
0.981681
0.981742
0.981825
0.981907
0.981972
0.982002
0.981932
0.981902
0.981833
0.981748
0.981663
0.9816
0.981571
0.981581
0.981623
0.981684
0.981751
0.981812
0.981861
0.981894
0.981911
0.981911
0.981894
0.981861
0.981813
0.981751
0.981684
0.981623
0.981581
0.981571
0.9816
0.981663
0.981748
0.981833
0.981902
0.981932
0.98186
0.981828
0.981756
0.981669
0.981581
0.981518
0.981489
0.981498
0.981541
0.981604
0.981675
0.981741
0.981797
0.981835
0.981855
0.981855
0.981836
0.981797
0.981742
0.981675
0.981604
0.981541
0.981498
0.981488
0.981518
0.981581
0.981669
0.981756
0.981827
0.98186
0.981784
0.98175
0.981676
0.981586
0.981498
0.981435
0.981407
0.981418
0.981461
0.981525
0.981598
0.981668
0.981728
0.981771
0.981793
0.981793
0.981771
0.981728
0.981668
0.981598
0.981526
0.981462
0.981419
0.981408
0.981435
0.981498
0.981586
0.981676
0.98175
0.981784
0.981705
0.98167
0.981594
0.981503
0.981416
0.981355
0.98133
0.981343
0.981386
0.98145
0.981522
0.981593
0.981655
0.9817
0.981724
0.981724
0.9817
0.981655
0.981593
0.981522
0.98145
0.981386
0.981343
0.98133
0.981355
0.981416
0.981503
0.981594
0.98167
0.981705
0.981626
0.981589
0.981511
0.98142
0.981335
0.981277
0.981256
0.981272
0.981316
0.981378
0.981449
0.981518
0.981579
0.981625
0.98165
0.98165
0.981626
0.98158
0.981519
0.981449
0.981379
0.981317
0.981272
0.981257
0.981278
0.981335
0.98142
0.981511
0.981589
0.981626
0.981548
0.98151
0.981431
0.98134
0.981257
0.981205
0.981189
0.981208
0.981253
0.981314
0.98138
0.981446
0.981505
0.981549
0.981573
0.981574
0.981549
0.981505
0.981447
0.981381
0.981314
0.981254
0.981209
0.981189
0.981205
0.981258
0.981341
0.981431
0.98151
0.981548
0.981473
0.981435
0.981356
0.981266
0.981186
0.981139
0.981129
0.981153
0.981199
0.981258
0.98132
0.981381
0.981434
0.981476
0.981498
0.981498
0.981476
0.981435
0.981381
0.981321
0.981258
0.9812
0.981153
0.981129
0.98114
0.981187
0.981266
0.981356
0.981435
0.981473
0.981404
0.981366
0.981287
0.9812
0.981124
0.981082
0.981078
0.981107
0.981156
0.981213
0.981271
0.981325
0.981372
0.981409
0.981429
0.981429
0.981409
0.981373
0.981326
0.981271
0.981214
0.981156
0.981108
0.981079
0.981082
0.981124
0.9812
0.981288
0.981366
0.981404
0.981341
0.981304
0.981227
0.981143
0.981071
0.981035
0.981037
0.981072
0.981124
0.981181
0.981234
0.981281
0.981321
0.981351
0.981368
0.981368
0.981352
0.981322
0.981282
0.981235
0.981181
0.981125
0.981073
0.981038
0.981035
0.981071
0.981143
0.981228
0.981304
0.981342
0.981284
0.981248
0.981175
0.981095
0.981028
0.980998
0.981007
0.981048
0.981104
0.98116
0.98121
0.98125
0.981282
0.981305
0.981317
0.981317
0.981305
0.981282
0.981251
0.981211
0.981161
0.981104
0.981049
0.981008
0.980999
0.981029
0.981096
0.981176
0.981249
0.981285
0.98123
0.981197
0.981129
0.981054
0.980994
0.98097
0.980986
0.981033
0.981093
0.98115
0.981196
0.98123
0.981253
0.981269
0.981276
0.981277
0.981269
0.981254
0.981231
0.981197
0.981151
0.981094
0.981034
0.980987
0.980971
0.980995
0.981055
0.98113
0.981198
0.981231
0.981178
0.981148
0.981085
0.981018
0.980965
0.980948
0.980971
0.981024
0.981088
0.981147
0.98119
0.981218
0.981233
0.98124
0.981243
0.981244
0.98124
0.981233
0.981218
0.981191
0.981147
0.981089
0.981025
0.980972
0.980949
0.980966
0.981018
0.981086
0.981148
0.981178
0.981123
0.981097
0.98104
0.980981
0.980936
0.980928
0.980957
0.981016
0.981084
0.981145
0.981187
0.981209
0.981216
0.981216
0.981215
0.981215
0.981217
0.981217
0.98121
0.981188
0.981146
0.981086
0.981017
0.980959
0.980929
0.980937
0.980981
0.981041
0.981097
0.981123
0.981064
0.981041
0.980991
0.980939
0.980904
0.980904
0.980941
0.981006
0.981079
0.981142
0.981183
0.981201
0.981201
0.981193
0.981187
0.981187
0.981194
0.981201
0.981201
0.981184
0.981143
0.98108
0.981007
0.980942
0.980905
0.980905
0.98094
0.980991
0.981042
0.981064
0.980999
0.980979
0.980934
0.98089
0.980863
0.980872
0.980918
0.980989
0.981068
0.981134
0.981175
0.981189
0.981183
0.981168
0.981157
0.981157
0.981168
0.981183
0.98119
0.981176
0.981135
0.981069
0.980991
0.980919
0.980874
0.980864
0.980891
0.980934
0.98098
0.980999
0.980928
0.98091
0.980869
0.980831
0.980813
0.980831
0.980885
0.980964
0.981048
0.981119
0.981161
0.981172
0.98116
0.981139
0.981124
0.981124
0.981139
0.981161
0.981173
0.981162
0.98112
0.98105
0.980965
0.980886
0.980832
0.980814
0.980832
0.980869
0.98091
0.980928
0.98085
0.980834
0.980795
0.980762
0.980751
0.980778
0.980841
0.980928
0.98102
0.981095
0.981139
0.981148
0.981132
0.981105
0.981087
0.981087
0.981106
0.981132
0.981149
0.981139
0.981096
0.981021
0.98093
0.980842
0.980779
0.980752
0.980763
0.980795
0.980834
0.98085
0.980767
0.980751
0.980713
0.980684
0.980679
0.980714
0.980786
0.980882
0.980981
0.981061
0.981107
0.981116
0.981097
0.981067
0.981046
0.981046
0.981067
0.981097
0.981117
0.981108
0.981062
0.980982
0.980884
0.980787
0.980715
0.98068
0.980684
0.980713
0.980751
0.980767
0.980678
0.980662
0.980624
0.980597
0.980597
0.98064
0.980721
0.980826
0.980933
0.981017
0.981066
0.981075
0.981054
0.981023
0.981002
0.981002
0.981024
0.981055
0.981075
0.981066
0.981018
0.980934
0.980828
0.980723
0.980641
0.980598
0.980598
0.980624
0.980662
0.980678
0.980584
0.980568
0.980529
0.980504
0.980509
0.980558
0.980648
0.980761
0.980874
0.980962
0.981013
0.981024
0.981005
0.980975
0.980955
0.980955
0.980975
0.981005
0.981024
0.981014
0.980963
0.980875
0.980762
0.980649
0.98056
0.980509
0.980505
0.98053
0.980568
0.980584
0.980484
0.980468
0.98043
0.980406
0.980414
0.98047
0.980567
0.980686
0.980804
0.980895
0.980948
0.980961
0.980946
0.980921
0.980904
0.980904
0.980922
0.980947
0.980962
0.980949
0.980896
0.980805
0.980688
0.980568
0.980471
0.980415
0.980407
0.98043
0.980468
0.980483
0.980377
0.980362
0.980324
0.980303
0.980314
0.980375
0.980478
0.980603
0.980723
0.980816
0.98087
0.980887
0.980878
0.98086
0.980847
0.980848
0.980861
0.980879
0.980888
0.980871
0.980817
0.980724
0.980604
0.980479
0.980376
0.980315
0.980303
0.980324
0.980362
0.980376
0.980262
0.980249
0.980213
0.980195
0.98021
0.980276
0.980383
0.980511
0.980632
0.980724
0.980779
0.9808
0.9808
0.98079
0.980783
0.980783
0.980791
0.9808
0.980801
0.98078
0.980725
0.980633
0.980512
0.980384
0.980277
0.98021
0.980195
0.980213
0.980249
0.980262
0.98014
0.98013
0.980097
0.980082
0.980101
0.980171
0.980282
0.98041
0.98053
0.980621
0.980676
0.980702
0.98071
0.98071
0.980709
0.980709
0.980711
0.980711
0.980703
0.980677
0.980622
0.980531
0.980411
0.980283
0.980172
0.980102
0.980082
0.980097
0.980129
0.98014
0.980012
0.980005
0.979977
0.979967
0.97999
0.980063
0.980175
0.980303
0.98042
0.980509
0.980565
0.980595
0.980611
0.980619
0.980624
0.980624
0.98062
0.980611
0.980596
0.980565
0.98051
0.980421
0.980304
0.980176
0.980064
0.979991
0.979967
0.979976
0.980004
0.980011
0.979881
0.979877
0.979855
0.979851
0.979879
0.979954
0.980066
0.980192
0.980306
0.980392
0.980448
0.980482
0.980504
0.980519
0.980528
0.980528
0.98052
0.980504
0.980482
0.980449
0.980393
0.980307
0.980193
0.980067
0.979955
0.979879
0.979851
0.979855
0.979877
0.97988
0.97975
0.979751
0.979735
0.979738
0.979771
0.979847
0.979957
0.980079
0.98019
0.980274
0.98033
0.980366
0.980392
0.980411
0.980422
0.980422
0.980412
0.980393
0.980367
0.980331
0.980275
0.980191
0.98008
0.979958
0.979848
0.979771
0.979738
0.979735
0.97975
0.979749
0.979622
0.979628
0.979621
0.979632
0.979669
0.979745
0.979851
0.979969
0.980077
0.98016
0.980215
0.980252
0.980279
0.980298
0.98031
0.98031
0.980299
0.980279
0.980253
0.980216
0.98016
0.980078
0.97997
0.979852
0.979745
0.979669
0.979632
0.97962
0.979627
0.979621
0.979499
0.979511
0.979513
0.979533
0.979575
0.979649
0.979751
0.979864
0.979968
0.98005
0.980106
0.980141
0.980166
0.980183
0.980193
0.980193
0.980184
0.980166
0.980142
0.980106
0.98005
0.979969
0.979865
0.979752
0.97965
0.979575
0.979533
0.979513
0.97951
0.979498
0.979381
0.979399
0.979412
0.979442
0.979489
0.979562
0.979658
0.979764
0.979865
0.979945
0.98
0.980033
0.980054
0.980067
0.980074
0.980074
0.980067
0.980054
0.980033
0.98
0.979945
0.979865
0.979765
0.979659
0.979563
0.979489
0.979442
0.979412
0.979399
0.97938
0.979266
0.979291
0.979316
0.979357
0.97941
0.979482
0.979571
0.979669
0.979765
0.979843
0.979896
0.979926
0.979941
0.979948
0.979951
0.979951
0.979948
0.979941
0.979926
0.979896
0.979843
0.979765
0.97967
0.979572
0.979483
0.97941
0.979357
0.979315
0.97929
0.979265
0.979149
0.979181
0.979219
0.979273
0.979334
0.979405
0.979488
0.979577
0.979665
0.979739
0.97979
0.979816
0.979824
0.979823
0.979821
0.979821
0.979823
0.979823
0.979815
0.979789
0.979739
0.979665
0.979577
0.979488
0.979406
0.979334
0.979273
0.979219
0.979181
0.979148
0.979026
0.979067
0.979118
0.979185
0.979255
0.979327
0.979404
0.979482
0.979561
0.979628
0.979675
0.979698
0.9797
0.979692
0.979684
0.979684
0.979691
0.979699
0.979697
0.979675
0.979628
0.979561
0.979483
0.979404
0.979328
0.979255
0.979184
0.979117
0.979066
0.979025
0.978894
0.978943
0.979007
0.979087
0.979167
0.979243
0.979314
0.979383
0.979449
0.979507
0.979549
0.979568
0.979566
0.979553
0.979543
0.979543
0.979553
0.979565
0.979567
0.979548
0.979507
0.979449
0.979383
0.979315
0.979243
0.979167
0.979087
0.979007
0.978942
0.978894
0.978751
0.978807
0.978883
0.978976
0.979067
0.979147
0.979216
0.979275
0.979328
0.979373
0.979406
0.979422
0.97942
0.979408
0.979397
0.979397
0.979408
0.97942
0.979421
0.979406
0.979372
0.979327
0.979274
0.979216
0.979147
0.979067
0.978976
0.978883
0.978806
0.97875
0.978594
0.978657
0.978745
0.97885
0.978951
0.979036
0.979104
0.979155
0.979195
0.979225
0.979247
0.979258
0.979258
0.97925
0.979243
0.979242
0.97925
0.979257
0.979258
0.979246
0.979224
0.979194
0.979154
0.979103
0.979035
0.978951
0.97885
0.978745
0.978656
0.978593
0.978424
0.978493
0.978592
0.978708
0.978818
0.978908
0.978977
0.979021
0.979049
0.979064
0.979072
0.979075
0.979075
0.979071
0.979067
0.979067
0.97907
0.979074
0.979075
0.979071
0.979063
0.979048
0.97902
0.978976
0.978908
0.978818
0.978707
0.978591
0.978493
0.978423
0.978242
0.978317
0.978425
0.978551
0.97867
0.978765
0.978834
0.978874
0.978891
0.978892
0.978885
0.978877
0.97887
0.978865
0.978863
0.978863
0.978865
0.978869
0.978876
0.978884
0.978891
0.97889
0.978873
0.978833
0.978765
0.97867
0.978551
0.978425
0.978317
0.978242
0.978051
0.978131
0.978247
0.978382
0.978509
0.978609
0.978677
0.978713
0.978722
0.978712
0.978692
0.97867
0.978652
0.97864
0.978635
0.978634
0.978639
0.978651
0.978668
0.97869
0.97871
0.97872
0.978711
0.978676
0.978608
0.978509
0.978381
0.978247
0.97813
0.978051
0.977853
0.977936
0.97806
0.978202
0.978337
0.97844
0.978508
0.978539
0.978542
0.978524
0.978495
0.978463
0.978435
0.978414
0.978403
0.978402
0.978413
0.978433
0.978462
0.978494
0.978522
0.97854
0.978537
0.978507
0.978439
0.978337
0.978202
0.97806
0.977935
0.977852
0.977649
0.977734
0.977866
0.978015
0.978157
0.978261
0.978327
0.978353
0.978351
0.978329
0.978298
0.978263
0.97823
0.978205
0.97819
0.97819
0.978204
0.978229
0.978261
0.978296
0.978328
0.978349
0.978352
0.978326
0.97826
0.978156
0.978015
0.977866
0.977734
0.977649
0.977441
0.977527
0.977666
0.977821
0.977967
0.978073
0.978136
0.978155
0.978148
0.978124
0.978095
0.978066
0.978039
0.978017
0.978004
0.978004
0.978016
0.978037
0.978064
0.978094
0.978123
0.978147
0.978154
0.978135
0.978072
0.977967
0.97782
0.977666
0.977527
0.977441
0.977229
0.977315
0.97746
0.977619
0.977769
0.977873
0.977932
0.977944
0.97793
0.977903
0.977878
0.977858
0.977843
0.977832
0.977825
0.977825
0.977831
0.977842
0.977857
0.977877
0.977902
0.977929
0.977943
0.977931
0.977872
0.977768
0.977618
0.97746
0.977314
0.977228
0.977011
0.977096
0.977248
0.977409
0.977561
0.977662
0.977714
0.977716
0.977692
0.97766
0.977635
0.977622
0.977617
0.977617
0.977618
0.977618
0.977617
0.977617
0.977621
0.977635
0.97766
0.977691
0.977715
0.977712
0.977661
0.97756
0.977408
0.977247
0.977096
0.977011
0.976789
0.976871
0.977028
0.97719
0.977342
0.977437
0.977479
0.977468
0.977432
0.977389
0.977357
0.977341
0.977339
0.977344
0.977349
0.977348
0.977344
0.977339
0.977341
0.977357
0.977388
0.977431
0.977467
0.977478
0.977435
0.977341
0.97719
0.977028
0.976871
0.976789
0.976562
0.97664
0.976803
0.976964
0.977112
0.977198
0.977228
0.977201
0.977147
0.977087
0.977039
0.977011
0.977001
0.977002
0.977005
0.977005
0.977001
0.977001
0.97701
0.977038
0.977086
0.977146
0.9772
0.977227
0.977197
0.977111
0.976963
0.976803
0.97664
0.976562
0.976332
0.976404
0.976573
0.976731
0.976875
0.97695
0.976964
0.976918
0.976841
0.976756
0.976684
0.976634
0.976608
0.976598
0.976597
0.976597
0.976598
0.976608
0.976634
0.976683
0.976755
0.97684
0.976917
0.976963
0.976949
0.976874
0.97673
0.976572
0.976404
0.976332
0.976102
0.976167
0.976341
0.976495
0.976634
0.976696
0.976694
0.976624
0.97652
0.976404
0.976301
0.976224
0.976176
0.976154
0.976146
0.976146
0.976153
0.976176
0.976223
0.9763
0.976403
0.976519
0.976623
0.976693
0.976695
0.976633
0.976495
0.976341
0.976168
0.976103
0.975877
0.975934
0.976113
0.976262
0.976394
0.976444
0.976423
0.976328
0.976192
0.97604
0.975901
0.975792
0.975723
0.975687
0.975673
0.975673
0.975686
0.975722
0.975792
0.9759
0.976039
0.976191
0.976327
0.976423
0.976443
0.976394
0.976261
0.976113
0.975934
0.975877
0.975661
0.975707
0.975891
0.976035
0.976162
0.976199
0.976159
0.976036
0.975864
0.975672
0.975493
0.975352
0.975258
0.975208
0.975189
0.975189
0.975208
0.975258
0.975351
0.975493
0.975671
0.975864
0.976035
0.976158
0.976198
0.976162
0.976035
0.975891
0.975707
0.975661
0.975457
0.97549
0.97568
0.975818
0.97594
0.975964
0.975904
0.975751
0.975541
0.975306
0.975085
0.974908
0.974789
0.974723
0.974695
0.974695
0.974722
0.974788
0.974907
0.975084
0.975305
0.975541
0.975751
0.975903
0.975963
0.975939
0.975818
0.97568
0.975491
0.975457
0.975266
0.975284
0.975478
0.97561
0.975727
0.975737
0.975656
0.975473
0.975223
0.974943
0.974678
0.974463
0.974314
0.974228
0.97419
0.97419
0.974227
0.974313
0.974462
0.974677
0.974942
0.975223
0.975472
0.975656
0.975737
0.975726
0.97561
0.975478
0.975284
0.975266
0.975085
0.975084
0.975281
0.975408
0.97552
0.975516
0.975413
0.975196
0.974906
0.97458
0.97427
0.974014
0.973832
0.973721
0.973671
0.973671
0.973721
0.973831
0.974013
0.97427
0.97458
0.974906
0.975196
0.975413
0.975516
0.97552
0.975408
0.975281
0.975084
0.975085
0.974908
0.974885
0.975085
0.975207
0.975314
0.975294
0.975166
0.974915
0.974584
0.974213
0.973857
0.973558
0.973339
0.9732
0.973134
0.973134
0.973199
0.973338
0.973557
0.973857
0.974212
0.974584
0.974915
0.975166
0.975294
0.975314
0.975207
0.975086
0.974885
0.974909
0.974733
0.974683
0.974885
0.975002
0.975104
0.975066
0.97491
0.974624
0.974252
0.973835
0.973434
0.97309
0.972831
0.972661
0.972578
0.972578
0.972661
0.97283
0.973089
0.973433
0.973835
0.974251
0.974624
0.97491
0.975066
0.975104
0.975003
0.974885
0.974683
0.974734
0.97456
0.974478
0.97468
0.974793
0.974887
0.974827
0.974642
0.974319
0.973905
0.973444
0.972996
0.972607
0.972306
0.972104
0.972004
0.972004
0.972103
0.972305
0.972606
0.972996
0.973444
0.973905
0.974319
0.974642
0.974827
0.974887
0.974793
0.97468
0.974479
0.974561
0.974398
0.974278
0.974474
0.974583
0.974665
0.97458
0.974363
0.974002
0.973546
0.97304
0.972544
0.972107
0.971763
0.97153
0.971413
0.971413
0.971529
0.971762
0.972106
0.972543
0.973039
0.973546
0.974002
0.974363
0.974581
0.974666
0.974583
0.974475
0.974278
0.974399
0.974259
0.974093
0.974281
0.974383
0.974449
0.974335
0.974081
0.973681
0.973181
0.972626
0.97208
0.971594
0.971208
0.970944
0.970811
0.970811
0.970943
0.971207
0.971593
0.97208
0.972626
0.973181
0.973681
0.974082
0.974335
0.974449
0.974383
0.974281
0.974094
0.97426
0.974157
0.973939
0.974114
0.974207
0.974251
0.974103
0.973812
0.973368
0.972821
0.972214
0.971615
0.971078
0.97065
0.970356
0.970207
0.970207
0.970355
0.970649
0.971077
0.971614
0.972214
0.972821
0.973368
0.973812
0.974104
0.974252
0.974208
0.974115
0.97394
0.974158
0.974105
0.97383
0.97399
0.974071
0.974088
0.973902
0.973568
0.973078
0.972479
0.971815
0.971159
0.97057
0.970099
0.969776
0.969612
0.969612
0.969775
0.970098
0.970568
0.971158
0.971815
0.972479
0.973078
0.973569
0.973903
0.974088
0.974071
0.97399
0.97383
0.974106
0.974111
0.973775
0.973918
0.973984
0.973971
0.973743
0.973363
0.972821
0.972165
0.97144
0.970722
0.970079
0.969566
0.969214
0.969037
0.969037
0.969214
0.969565
0.970078
0.970721
0.971439
0.972165
0.972822
0.973363
0.973744
0.973971
0.973985
0.973919
0.973776
0.974112
0.974182
0.973782
0.973907
0.973955
0.973905
0.973632
0.9732
0.972602
0.971883
0.971092
0.970311
0.969612
0.969057
0.968676
0.968484
0.968484
0.968676
0.969056
0.969611
0.97031
0.971091
0.971883
0.972602
0.9732
0.973633
0.973906
0.973956
0.973908
0.973783
0.974183
0.974323
0.973856
0.973961
0.973984
0.973892
0.973566
0.973076
0.972416
0.971629
0.970769
0.969923
0.969168
0.968568
0.968158
0.967952
0.967952
0.968158
0.968567
0.969167
0.969922
0.970769
0.97163
0.972416
0.973076
0.973567
0.973893
0.973985
0.973961
0.973857
0.974323
0.974538
0.974001
0.97408
0.974072
0.973928
0.973541
0.972985
0.972255
0.971396
0.970464
0.96955
0.968737
0.968092
0.967652
0.967429
0.967429
0.967651
0.968092
0.968736
0.969549
0.970464
0.971396
0.972255
0.972985
0.973541
0.973929
0.974072
0.974081
0.974001
0.974538
0.974832
0.974221
0.97427
0.974218
0.97401
0.97355
0.972918
0.97211
0.971173
0.970165
0.969182
0.96831
0.967618
0.967144
0.966904
0.966904
0.967143
0.967617
0.96831
0.969182
0.970165
0.971173
0.97211
0.972918
0.973551
0.974011
0.974218
0.97427
0.974221
0.974833
0.975211
0.974521
0.974534
0.974425
0.974139
0.973593
0.972871
0.971975
0.970954
0.969865
0.96881
0.967877
0.967134
0.966624
0.966364
0.966364
0.966624
0.967134
0.967877
0.96881
0.969865
0.970954
0.971976
0.972872
0.973593
0.97414
0.974426
0.974535
0.974521
0.975212
0.97568
0.974908
0.974879
0.9747
0.97432
0.973671
0.972847
0.971851
0.970735
0.969561
0.968431
0.967432
0.966636
0.966085
0.965803
0.965803
0.966085
0.966636
0.967432
0.968431
0.969561
0.970735
0.971851
0.972847
0.973672
0.97432
0.974701
0.97488
0.974908
0.97568
0.976244
0.975387
0.975312
0.97505
0.974559
0.973792
0.97285
0.971741
0.970521
0.969254
0.968042
0.966974
0.966119
0.965524
0.965218
0.965218
0.965524
0.96612
0.966974
0.968043
0.969254
0.970521
0.971741
0.97285
0.973792
0.974559
0.97505
0.975312
0.975388
0.976244
0.976911
0.975967
0.97584
0.975482
0.974864
0.973963
0.972887
0.971652
0.970316
0.968947
0.967647
0.966502
0.965584
0.964941
0.964608
0.964608
0.964941
0.965585
0.966503
0.967647
0.968947
0.970316
0.971652
0.972887
0.973963
0.974865
0.975483
0.975841
0.975967
0.976912
0.977688
0.976654
0.976473
0.976008
0.975245
0.97419
0.972964
0.971589
0.970125
0.968643
0.967245
0.966016
0.965028
0.964333
0.963972
0.963972
0.964333
0.965028
0.966017
0.967245
0.968644
0.970126
0.971589
0.972965
0.97419
0.975246
0.976009
0.976474
0.976655
0.977688
0.978573
0.977449
0.977213
0.976633
0.97571
0.974481
0.973087
0.971556
0.96995
0.968342
0.966834
0.965511
0.964446
0.963696
0.963305
0.963306
0.963696
0.964447
0.965512
0.966835
0.968343
0.969951
0.971556
0.973088
0.974481
0.97571
0.976634
0.977214
0.977449
0.978574
0.979562
0.978345
0.978057
0.977359
0.976262
0.974839
0.973258
0.971553
0.96979
0.968041
0.96641
0.964982
0.963833
0.963022
0.962601
0.962601
0.963023
0.963834
0.964984
0.966411
0.968043
0.96979
0.971553
0.973258
0.974839
0.976262
0.977359
0.978058
0.978346
0.979562
0.980666
0.979354
0.979012
0.978189
0.976902
0.975266
0.973478
0.971578
0.969639
0.967735
0.965965
0.964421
0.963179
0.962304
0.96185
0.96185
0.962305
0.963181
0.964423
0.965967
0.967736
0.96964
0.971579
0.973478
0.975266
0.976902
0.978189
0.979013
0.979355
0.980667
0.981934
0.980519
0.980118
0.979153
0.977645
0.975764
0.973743
0.971629
0.969495
0.967415
0.965492
0.963818
0.962475
0.961531
0.961042
0.961043
0.961532
0.962477
0.96382
0.965494
0.967417
0.969496
0.97163
0.973743
0.975764
0.977645
0.979153
0.980118
0.980519
0.981935
0.983411
0.981886
0.981427
0.980306
0.97853
0.976348
0.974053
0.971699
0.969349
0.967076
0.964982
0.963165
0.961713