# vtk DataFile Version 3.0
Grid data
ASCII
DATASET STRUCTURED_POINTS
DIMENSIONS 30 300 1
ORIGIN 0 0 0
SPACING 0.00833333 0.00333333 1
POINT_DATA 9000
SCALARS rho double
LOOKUP_TABLE default
0.994403
0.994404
0.994403
0.994395
0.994375
0.994342
0.994297
0.994244
0.994191
0.994141
0.994099
0.994064
0.994035
0.994015
0.994003
0.994003
0.994015
0.994035
0.994064
0.994099
0.994141
0.994191
0.994244
0.994297
0.994342
0.994375
0.994395
0.994404
0.994405
0.994408
0.993118
0.993122
0.99313
0.993129
0.993114
0.993078
0.993023
0.992956
0.992888
0.99283
0.992788
0.992763
0.992752
0.99275
0.992751
0.992751
0.99275
0.992752
0.992763
0.992788
0.99283
0.992888
0.992956
0.993023
0.993078
0.993114
0.993129
0.99313
0.993123
0.99312
0.993109
0.993113
0.993123
0.993127
0.993119
0.993094
0.993052
0.992999
0.992944
0.992897
0.992864
0.992848
0.992845
0.992849
0.992853
0.992853
0.992849
0.992845
0.992848
0.992864
0.992897
0.992944
0.992999
0.993052
0.993094
0.993119
0.993126
0.993123
0.993113
0.993109
0.993341
0.993343
0.99335
0.993351
0.993344
0.993322
0.993285
0.993234
0.993179
0.993128
0.99309
0.993068
0.993061
0.993062
0.993065
0.993065
0.993062
0.993061
0.993068
0.99309
0.993128
0.993179
0.993234
0.993285
0.993322
0.993344
0.993351
0.99335
0.993343
0.993342
0.993689
0.99369
0.993697
0.993703
0.993707
0.993702
0.993686
0.993656
0.993616
0.993572
0.993534
0.993505
0.993489
0.993483
0.993482
0.993482
0.993483
0.993489
0.993505
0.993534
0.993572
0.993616
0.993656
0.993686
0.993702
0.993707
0.993703
0.993697
0.993691
0.99369
0.993814
0.993817
0.993828
0.993844
0.993864
0.993883
0.993893
0.993888
0.993866
0.993831
0.993788
0.993748
0.993716
0.993694
0.993684
0.993684
0.993694
0.993716
0.993748
0.993788
0.993831
0.993866
0.993888
0.993893
0.993883
0.993864
0.993844
0.993828
0.993817
0.993814
0.993666
0.993672
0.993692
0.993721
0.993762
0.993804
0.993842
0.993862
0.993858
0.99383
0.993782
0.993726
0.993672
0.993631
0.993608
0.993608
0.993631
0.993672
0.993726
0.993782
0.99383
0.993858
0.993862
0.993842
0.993804
0.993761
0.993721
0.993692
0.993672
0.993666
0.993285
0.993295
0.993323
0.993365
0.993419
0.993479
0.993533
0.993569
0.993577
0.993551
0.993495
0.993421
0.993344
0.993283
0.993248
0.993248
0.993283
0.993344
0.993421
0.993495
0.993551
0.993577
0.993569
0.993533
0.993479
0.993419
0.993365
0.993323
0.993295
0.993285
0.992802
0.992816
0.992849
0.992896
0.992955
0.993018
0.993077
0.993117
0.993128
0.993102
0.993041
0.992955
0.992864
0.992788
0.992745
0.992745
0.992788
0.992864
0.992955
0.993041
0.993102
0.993128
0.993117
0.993076
0.993018
0.992955
0.992896
0.992849
0.992816
0.992802
0.992302
0.992316
0.992345
0.992384
0.992432
0.992483
0.99253
0.992562
0.992569
0.992543
0.992481
0.992394
0.992301
0.992222
0.992178
0.992178
0.992222
0.992301
0.992394
0.992481
0.992543
0.992569
0.992562
0.99253
0.992483
0.992432
0.992384
0.992345
0.992316
0.992302
0.991822
0.99183
0.991843
0.99186
0.991881
0.991904
0.991927
0.991942
0.991941
0.991915
0.991863
0.991789
0.991709
0.991642
0.991603
0.991603
0.991642
0.991709
0.991789
0.991863
0.991915
0.991941
0.991942
0.991927
0.991904
0.991881
0.99186
0.991843
0.991829
0.991822
0.991334
0.991329
0.991317
0.9913
0.991283
0.991269
0.991261
0.991256
0.991248
0.991229
0.991196
0.991149
0.991098
0.991053
0.991028
0.991028
0.991053
0.991098
0.991149
0.991196
0.991229
0.991248
0.991256
0.991261
0.991269
0.991283
0.9913
0.991317
0.991329
0.991334
0.990782
0.990762
0.990722
0.990668
0.990612
0.990563
0.990529
0.990508
0.9905
0.990498
0.990495
0.990488
0.990476
0.990464
0.990456
0.990456
0.990464
0.990476
0.990488
0.990495
0.990498
0.9905
0.990508
0.990529
0.990563
0.990612
0.990668
0.990722
0.990762
0.990782
0.99011
0.990077
0.990016
0.989937
0.989855
0.989784
0.989736
0.989714
0.98972
0.989746
0.989786
0.989828
0.989864
0.989888
0.9899
0.9899
0.989888
0.989864
0.989828
0.989786
0.989746
0.98972
0.989714
0.989736
0.989784
0.989855
0.989936
0.990016
0.990077
0.99011
0.989285
0.989248
0.989184
0.989102
0.98902
0.988954
0.988915
0.988914
0.988951
0.989024
0.989118
0.989217
0.989304
0.989366
0.989398
0.989398
0.989366
0.989304
0.989217
0.989118
0.989024
0.988951
0.988913
0.988915
0.988954
0.98902
0.989102
0.989184
0.989248
0.989285
0.988308
0.988279
0.988237
0.988185
0.988139
0.988111
0.988115
0.988161
0.988255
0.988391
0.988552
0.988714
0.988854
0.988954
0.989005
0.989005
0.988954
0.988854
0.988714
0.988552
0.988391
0.988255
0.988161
0.988115
0.98811
0.988139
0.988185
0.988237
0.988279
0.988308
0.987207
0.987202
0.987208
0.987223
0.987253
0.987305
0.98739
0.987518
0.987695
0.987912
0.988149
0.988378
0.988571
0.988707
0.988776
0.988776
0.988707
0.988571
0.988378
0.988149
0.987912
0.987695
0.987518
0.98739
0.987305
0.987253
0.987223
0.987208
0.987201
0.987207
0.986037
0.986068
0.986149
0.986264
0.986412
0.986587
0.986794
0.987038
0.987322
0.987634
0.987952
0.988248
0.988491
0.988663
0.98875
0.98875
0.988663
0.988491
0.988248
0.987952
0.987634
0.987322
0.987038
0.986794
0.986587
0.986412
0.986264
0.986149
0.986068
0.986037
0.98487
0.984948
0.985123
0.985368
0.985667
0.986002
0.986366
0.986754
0.98716
0.987572
0.987968
0.988323
0.988613
0.988818
0.988924
0.988924
0.988818
0.988613
0.988323
0.987968
0.987572
0.98716
0.986754
0.986366
0.986002
0.985667
0.985368
0.985123
0.984948
0.98487
0.983794
0.983926
0.984205
0.984595
0.985065
0.985581
0.986119
0.98666
0.987189
0.987692
0.988154
0.988558
0.988887
0.989121
0.989244
0.989244
0.989121
0.988887
0.988558
0.988154
0.987692
0.987189
0.98666
0.986119
0.985581
0.985065
0.984595
0.984204
0.983926
0.983794
0.982902
0.983089
0.983467
0.983999
0.984635
0.985324
0.986025
0.986705
0.98734
0.987916
0.988428
0.988869
0.989229
0.98949
0.989628
0.989628
0.98949
0.989229
0.988869
0.988428
0.987916
0.98734
0.986705
0.986025
0.985324
0.984635
0.983999
0.983467
0.983089
0.982902
0.982291
0.982526
0.982976
0.983614
0.984375
0.985195
0.98602
0.986804
0.987517
0.988146
0.988694
0.989162
0.989548
0.98983
0.989982
0.989982
0.98983
0.989548
0.989162
0.988694
0.988146
0.987517
0.986804
0.98602
0.985195
0.984375
0.983614
0.982976
0.982526
0.982291
0.982042
0.982306
0.982775
0.983448
0.984258
0.985137
0.986024
0.986864
0.987623
0.988286
0.988861
0.989354
0.989763
0.990063
0.990224
0.990224
0.990063
0.989763
0.989354
0.988861
0.988286
0.987623
0.986864
0.986024
0.985137
0.984258
0.983448
0.982775
0.982306
0.982042
0.982212
0.982468
0.982876
0.983487
0.984244
0.985092
0.985967
0.98681
0.987581
0.988265
0.988866
0.989387
0.989819
0.990136
0.990305
0.990305
0.990136
0.989819
0.989387
0.988866
0.988265
0.987581
0.98681
0.985967
0.985092
0.984244
0.983487
0.982876
0.982468
0.982212
0.982788
0.982987
0.983258
0.983706
0.984306
0.985027
0.985812
0.986604
0.98736
0.988057
0.988687
0.989241
0.9897
0.990033
0.99021
0.99021
0.990033
0.9897
0.989241
0.988687
0.988057
0.98736
0.986604
0.985812
0.985027
0.984306
0.983706
0.983258
0.982987
0.982788
0.98367
0.983773
0.98386
0.984079
0.984436
0.984947
0.985572
0.986265
0.986978
0.987677
0.988335
0.988925
0.989413
0.989764
0.989948
0.989948
0.989764
0.989413
0.988925
0.988335
0.987677
0.986978
0.986265
0.985572
0.984947
0.984436
0.984079
0.98386
0.983773
0.98367
0.984703
0.9847
0.984602
0.984574
0.98465
0.984894
0.985302
0.985849
0.986488
0.987172
0.987848
0.988468
0.988983
0.989351
0.989543
0.989543
0.989351
0.988983
0.988468
0.987848
0.987172
0.986488
0.985849
0.985302
0.984894
0.98465
0.984574
0.984602
0.9847
0.984703
0.98573
0.985641
0.985394
0.985152
0.984963
0.984926
0.985079
0.985436
0.985963
0.986599
0.987271
0.987905
0.988437
0.988818
0.989015
0.989015
0.988818
0.988437
0.987905
0.987271
0.986599
0.985963
0.985436
0.985079
0.984926
0.984963
0.985152
0.985394
0.985641
0.98573
0.986619
0.986485
0.986159
0.985772
0.985377
0.985087
0.984975
0.985106
0.985474
0.986019
0.98665
0.987272
0.987803
0.988185
0.988383
0.988383
0.988185
0.987803
0.987272
0.98665
0.986019
0.985474
0.985106
0.984975
0.985087
0.985377
0.985772
0.986159
0.986485
0.986619
0.987298
0.987162
0.986833
0.98639
0.985873
0.98539
0.98504
0.984929
0.985092
0.985492
0.986032
0.986601
0.987103
0.987469
0.987659
0.987659
0.987469
0.987103
0.986601
0.986032
0.985492
0.985092
0.984929
0.98504
0.98539
0.985873
0.98639
0.986833
0.987162
0.987298
0.987763
0.987653
0.987381
0.986963
0.986409
0.985814
0.985282
0.984942
0.984869
0.985068
0.985459
0.985925
0.986359
0.986682
0.986852
0.986852
0.986682
0.986359
0.985925
0.985459
0.985068
0.984869
0.984942
0.985282
0.985814
0.986409
0.986963
0.987381
0.987653
0.987763
0.988056
0.987984
0.987791
0.987448
0.986934
0.986312
0.985672
0.985149
0.984837
0.984789
0.984968
0.985271
0.985588
0.985836
0.985969
0.985969
0.985836
0.985588
0.985271
0.984968
0.984789
0.984837
0.985149
0.985672
0.986312
0.986934
0.987448
0.987791
0.987984
0.988056
0.988241
0.988203
0.988078
0.987824
0.987399
0.986825
0.986158
0.985513
0.984993
0.984679
0.98459
0.984665
0.984809
0.984943
0.985019
0.985019
0.984943
0.984809
0.984665
0.98459
0.984679
0.984993
0.985513
0.986158
0.986825
0.987399
0.987824
0.988078
0.988203
0.988241
0.988374
0.988355
0.988271
0.988089
0.98777
0.987296
0.986673
0.985978
0.985301
0.984734
0.984341
0.984128
0.98404
0.984016
0.984013
0.984013
0.984016
0.98404
0.984128
0.984341
0.984734
0.985301
0.985978
0.986673
0.987296
0.98777
0.988089
0.988271
0.988355
0.988374
0.988491
0.988474
0.988402
0.988264
0.988037
0.98768
0.987154
0.986475
0.985701
0.984919
0.98422
0.983675
0.983303
0.983078
0.982973
0.982973
0.983078
0.983303
0.983675
0.98422
0.984919
0.985701
0.986475
0.987154
0.98768
0.988037
0.988264
0.988402
0.988474
0.988491
0.988603
0.988577
0.988496
0.988377
0.988212
0.98796
0.987548
0.986936
0.986126
0.985181
0.984204
0.983318
0.982624
0.982162
0.981934
0.981934
0.982162
0.982624
0.983318
0.984204
0.985181
0.986126
0.986936
0.987548
0.98796
0.988212
0.988377
0.988496
0.988577
0.988603
0.988708
0.988667
0.988571
0.988454
0.98832
0.988138
0.987828
0.987305
0.986509
0.98546
0.984256
0.983057
0.982034
0.98131
0.980943
0.980943
0.98131
0.982034
0.983057
0.984256
0.98546
0.986509
0.987305
0.987828
0.988138
0.98832
0.988454
0.988571
0.988667
0.988708
0.988795
0.988744
0.988636
0.988511
0.988383
0.988235
0.987992
0.987549
0.986797
0.9857
0.984335
0.98288
0.981557
0.980574
0.980057
0.980057
0.980574
0.981557
0.98288
0.984335
0.9857
0.986797
0.987549
0.987992
0.988235
0.988383
0.988511
0.988636
0.988744
0.988795
0.988857
0.988801
0.988688
0.988555
0.98842
0.988276
0.98806
0.987665
0.98696
0.98586
0.984404
0.982769
0.98121
0.979997
0.979337
0.979337
0.979997
0.98121
0.982769
0.984404
0.98586
0.98696
0.987665
0.98806
0.988276
0.98842
0.988555
0.988688
0.988801
0.988857
0.988888
0.988835
0.988724
0.988587
0.988441
0.988284
0.98806
0.987673
0.986994
0.985913
0.984431
0.982702
0.980992
0.979612
0.978837
0.978837
0.979612
0.980992
0.982702
0.984431
0.985913
0.986994
0.987673
0.98806
0.988284
0.988441
0.988587
0.988724
0.988835
0.988888
0.988888
0.988841
0.988741
0.988606
0.988453
0.988275
0.98802
0.987601
0.986911
0.985849
0.984388
0.982651
0.98089
0.979429
0.978593
0.978593
0.979429
0.98089
0.982651
0.984388
0.985849
0.986911
0.987601
0.98802
0.988275
0.988453
0.988606
0.988741
0.988841
0.988888
0.98886
0.988821
0.988736
0.988613
0.988459
0.988259
0.987957
0.987475
0.986733
0.98567
0.984259
0.982589
0.980879
0.97944
0.978611
0.978611
0.97944
0.980879
0.982589
0.984259
0.98567
0.986733
0.987475
0.987957
0.988259
0.988459
0.988613
0.988736
0.988821
0.98886
0.988809
0.98878
0.988714
0.988609
0.988459
0.988235
0.987874
0.987305
0.986481
0.98539
0.984038
0.982494
0.980932
0.979621
0.978872
0.978872
0.979621
0.980932
0.982494
0.984038
0.98539
0.986481
0.987305
0.987874
0.988235
0.988459
0.988609
0.988714
0.98878
0.988809
0.988746
0.988727
0.98868
0.988594
0.988447
0.988194
0.987762
0.98709
0.986166
0.98503
0.983736
0.982358
0.981026
0.979939
0.979333
0.979333
0.979939
0.981026
0.982358
0.983736
0.98503
0.986166
0.98709
0.987762
0.988194
0.988447
0.988594
0.98868
0.988727
0.988746
0.98868
0.98867
0.988639
0.988564
0.988412
0.988119
0.987606
0.986826
0.985799
0.984615
0.983382
0.982195
0.981151
0.98036
0.979945
0.979945
0.98036
0.981151
0.982195
0.983382
0.984615
0.985799
0.986826
0.987606
0.988119
0.988412
0.988564
0.988639
0.98867
0.98868
0.98862
0.988616
0.988591
0.988515
0.988342
0.987996
0.987394
0.986508
0.985392
0.984177
0.983015
0.982034
0.98131
0.980855
0.980653
0.980653
0.980855
0.98131
0.982034
0.983015
0.984177
0.985392
0.986508
0.987394
0.987996
0.988342
0.988515
0.988591
0.988616
0.98862
0.988569
0.988565
0.988535
0.988442
0.988229
0.987815
0.98712
0.98614
0.984962
0.983745
0.982677
0.981914
0.981519
0.981399
0.981406
0.981406
0.981399
0.981519
0.981914
0.982677
0.983745
0.984962
0.98614
0.98712
0.987815
0.988229
0.988442
0.988535
0.988565
0.988569
0.988519
0.988511
0.988466
0.988341
0.988073
0.987576
0.986789
0.985734
0.984527
0.983347
0.982403
0.981874
0.981786
0.981964
0.982157
0.982157
0.981964
0.981786
0.981874
0.982403
0.983347
0.984527
0.985734
0.986789
0.987576
0.988073
0.988341
0.988466
0.988511
0.988519
0.988462
0.988446
0.988381
0.988216
0.98788
0.987291
0.986414
0.985305
0.984104
0.983003
0.982224
0.981935
0.982111
0.982527
0.982861
0.982861
0.982527
0.982111
0.981935
0.982224
0.983003
0.984104
0.985305
0.986414
0.987291
0.98788
0.988216
0.988381
0.988446
0.988462
0.988388
0.988364
0.988279
0.988069
0.987656
0.98697
0.98601
0.984868
0.983705
0.982725
0.982151
0.982096
0.982479
0.983063
0.983484
0.983484
0.983063
0.982479
0.982096
0.982151
0.982725
0.983705
0.984868
0.98601
0.98697
0.987656
0.988069
0.988279
0.988364
0.988388
0.988293
0.988264
0.98816
0.987904
0.987408
0.986624
0.98559
0.984434
0.983339
0.982518
0.982178
0.982337
0.982873
0.983554
0.984004
0.984004
0.983554
0.982873
0.982337
0.982178
0.982518
0.983339
0.984434
0.98559
0.986624
0.987408
0.987904
0.98816
0.988264
0.988293
0.988183
0.988148
0.988024
0.987715
0.987134
0.986257
0.985163
0.984013
0.983014
0.982387
0.982287
0.982635
0.983275
0.983984
0.984415
0.984415
0.983984
0.983275
0.982635
0.982287
0.982387
0.983014
0.984013
0.985163
0.986257
0.987134
0.987715
0.988024
0.988148
0.988183
0.988065
0.988021
0.987868
0.987497
0.986828
0.985868
0.984734
0.983615
0.982741
0.982332
0.982463
0.982969
0.983669
0.984351
0.984728
0.984728
0.984351
0.983669
0.982969
0.982463
0.982332
0.982741
0.983615
0.984734
0.985868
0.986828
0.987497
0.987868
0.988021
0.988065
0.987946
0.987886
0.987688
0.98724
0.986482
0.985458
0.984311
0.983255
0.982537
0.982355
0.982691
0.983324
0.984044
0.984659
0.984964
0.984964
0.984659
0.984044
0.983324
0.982691
0.982355
0.982537
0.983255
0.984311
0.985458
0.986482
0.98724
0.987688
0.987886
0.987946
0.987827
0.98774
0.98748
0.986941
0.986098
0.98503
0.983904
0.982948
0.982417
0.982455
0.982961
0.983684
0.984392
0.984917
0.985147
0.985147
0.984917
0.984392
0.983684
0.982961
0.982455
0.982417
0.982948
0.983904
0.98503
0.986098
0.986941
0.98748
0.98774
0.987827
0.987702
0.987578
0.987241
0.986603
0.985685
0.984597
0.983526
0.982707
0.982388
0.982626
0.983264
0.984039
0.984705
0.985131
0.985293
0.985293
0.985131
0.984705
0.984039
0.983264
0.982626
0.982388
0.982707
0.983526
0.984597
0.985685
0.986603
0.987241
0.987578
0.987702
0.987561
0.987392
0.986971
0.986236
0.985256
0.984174
0.983191
0.982545
0.982446
0.982858
0.983587
0.984374
0.984974
0.985305
0.985414
0.985414
0.985305
0.984974
0.984374
0.983587
0.982858
0.982446
0.982545
0.983191
0.984174
0.985256
0.986236
0.986971
0.987392
0.987561
0.987394
0.987177
0.986672
0.985852
0.984829
0.983777
0.98291
0.982464
0.982577
0.983131
0.983915
0.984674
0.985193
0.985443
0.985513
0.985513
0.985443
0.985193
0.984674
0.983915
0.983131
0.982577
0.982464
0.98291
0.983777
0.984829
0.985852
0.986672
0.987177
0.987394
0.987199
0.98693
0.986349
0.985459
0.984416
0.983417
0.982691
0.982458
0.982762
0.983427
0.98423
0.984932
0.985362
0.985547
0.985592
0.985592
0.985547
0.985362
0.984932
0.98423
0.983427
0.982762
0.982458
0.982691
0.983417
0.984416
0.985459
0.986349
0.98693
0.987199
0.986974
0.986653
0.986005
0.985064
0.984023
0.983101
0.982538
0.982515
0.982984
0.983729
0.984521
0.985142
0.985486
0.985624
0.985656
0.985656
0.985624
0.985486
0.985142
0.984521
0.983729
0.982984
0.982515
0.982538
0.983101
0.984023
0.985064
0.986005
0.986653
0.986974
0.986723
0.986349
0.985645
0.98467
0.983654
0.982833
0.98245
0.982625
0.983229
0.984025
0.98478
0.985309
0.985577
0.985683
0.985711
0.985711
0.985683
0.985577
0.985309
0.98478
0.984025
0.983229
0.982625
0.98245
0.982833
0.983654
0.98467
0.985645
0.986349
0.986723
0.986444
0.986019
0.985269
0.984278
0.98331
0.982614
0.982425
0.982778
0.983487
0.984306
0.985005
0.985441
0.985646
0.985733
0.985763
0.985763
0.985733
0.985646
0.985441
0.985005
0.984306
0.983487
0.982778
0.982425
0.982614
0.98331
0.984278
0.985269
0.986019
0.986444
0.986135
0.985662
0.984881
0.983893
0.982996
0.982449
0.982457
0.982965
0.983752
0.98457
0.985198
0.985547
0.985702
0.98578
0.985815
0.985815
0.98578
0.985702
0.985547
0.985198
0.98457
0.983752
0.982965
0.982457
0.982449
0.982996
0.983893
0.984881
0.985662
0.986135
0.985791
0.985275
0.984484
0.983521
0.982719
0.982343
0.98254
0.983179
0.984019
0.984811
0.985359
0.985631
0.985752
0.985827
0.985869
0.985869
0.985827
0.985752
0.985631
0.985359
0.984811
0.984019
0.983179
0.98254
0.982343
0.982719
0.983521
0.984484
0.985275
0.985791
0.985405
0.98486
0.984085
0.983174
0.98249
0.982297
0.982668
0.983411
0.984277
0.985023
0.985489
0.9857
0.985797
0.985872
0.985922
0.985922
0.985872
0.985797
0.9857
0.985489
0.985023
0.984277
0.983411
0.982668
0.982297
0.98249
0.983174
0.984085
0.98486
0.985405
0.984979
0.984418
0.983689
0.982857
0.982316
0.982309
0.982831
0.983651
0.984518
0.985201
0.98559
0.985754
0.985837
0.985915
0.98597
0.98597
0.985915
0.985837
0.985754
0.98559
0.985201
0.984518
0.983651
0.982831
0.982309
0.982316
0.982857
0.983689
0.984418
0.984979
0.984515
0.983957
0.983301
0.982578
0.982199
0.982371
0.983017
0.983889
0.984733
0.985343
0.985665
0.985797
0.985873
0.985954
0.986012
0.986012
0.985954
0.985873
0.985797
0.985665
0.985343
0.984733
0.983889
0.983017
0.982371
0.982199
0.982578
0.983301
0.983957
0.984515
0.984024
0.983484
0.982926
0.982336
0.982136
0.982473
0.983217
0.984114
0.984916
0.985451
0.985718
0.985832
0.985908
0.985989
0.986047
0.986047
0.985989
0.985908
0.985832
0.985718
0.985451
0.984916
0.984114
0.983217
0.982473
0.982136
0.982336
0.982926
0.983484
0.984024
0.983515
0.983009
0.982567
0.982133
0.982118
0.982602
0.98342
0.984319
0.985065
0.985528
0.985755
0.985862
0.98594
0.986021
0.986075
0.986075
0.986021
0.98594
0.985862
0.985755
0.985528
0.985065
0.984319
0.98342
0.982602
0.982118
0.982133
0.982567
0.983009
0.983515
0.982997
0.982538
0.982226
0.981965
0.982136
0.982747
0.983618
0.984502
0.985184
0.985583
0.985782
0.985889
0.985971
0.986047
0.986095
0.986095
0.986047
0.985971
0.985889
0.985782
0.985583
0.985184
0.984502
0.983618
0.982747
0.982136
0.981965
0.982226
0.982538
0.982997
0.982477
0.982078
0.981904
0.981833
0.982182
0.982901
0.983807
0.98466
0.985275
0.985621
0.985802
0.985913
0.985999
0.986069
0.986109
0.986109
0.986069
0.985999
0.985913
0.985802
0.985621
0.985275
0.98466
0.983807
0.982901
0.982182
0.981833
0.981904
0.982078
0.982477
0.98196
0.981631
0.981604
0.981733
0.982251
0.983059
0.983984
0.984795
0.985345
0.985648
0.985818
0.985933
0.986021
0.986084
0.986117
0.986117
0.986084
0.986021
0.985933
0.985818
0.985648
0.985345
0.984795
0.983984
0.983059
0.982251
0.981733
0.981604
0.981631
0.98196
0.981451
0.981199
0.981328
0.981664
0.98234
0.983218
0.984145
0.984907
0.985397
0.985666
0.985829
0.985948
0.986036
0.986094
0.98612
0.98612
0.986094
0.986036
0.985948
0.985829
0.985666
0.985397
0.984907
0.984145
0.983218
0.98234
0.981664
0.981328
0.981199
0.981451
0.980954
0.980788
0.981079
0.981621
0.982441
0.983376
0.984291
0.984998
0.985434
0.985678
0.985838
0.985958
0.986046
0.986098
0.986119
0.986119
0.986098
0.986046
0.985958
0.985838
0.985678
0.985434
0.984998
0.984291
0.983376
0.982441
0.981621
0.981079
0.980788
0.980954
0.980477
0.980402
0.98086
0.981596
0.98255
0.983528
0.984419
0.985069
0.985458
0.985685
0.985843
0.985965
0.98605
0.986098
0.986116
0.986116
0.986098
0.98605
0.985965
0.985843
0.985685
0.985458
0.985069
0.984419
0.983528
0.98255
0.981596
0.98086
0.980402
0.980477
0.980025
0.98005
0.980671
0.981583
0.982657
0.983669
0.984529
0.985122
0.985472
0.985686
0.985845
0.985967
0.98605
0.986095
0.986112
0.986112
0.986095
0.98605
0.985967
0.985845
0.985686
0.985472
0.985122
0.984529
0.983669
0.982657
0.981583
0.980671
0.98005
0.980025
0.979606
0.979736
0.980512
0.981575
0.982755
0.983794
0.984618
0.985158
0.985475
0.985682
0.985842
0.985966
0.986047
0.986091
0.986106
0.986106
0.986091
0.986047
0.985966
0.985842
0.985682
0.985475
0.985158
0.984618
0.983794
0.982755
0.981575
0.980512
0.979736
0.979606
0.979227
0.979461
0.98038
0.981571
0.982839
0.983898
0.984687
0.985178
0.98547
0.985672
0.985835
0.98596
0.986041
0.986084
0.9861
0.9861
0.986084
0.986041
0.98596
0.985835
0.985672
0.98547
0.985178
0.984687
0.983898
0.982839
0.981571
0.98038
0.979461
0.979227
0.978892
0.979226
0.980272
0.981567
0.982906
0.983979
0.984734
0.985184
0.985456
0.985656
0.985823
0.985949
0.986031
0.986075
0.986093
0.986093
0.986075
0.986031
0.985949
0.985823
0.985656
0.985456
0.985184
0.984734
0.983979
0.982906
0.981567
0.980272
0.979226
0.978892
0.978604
0.97903
0.980183
0.981562
0.982954
0.984036
0.98476
0.985177
0.985435
0.985634
0.985804
0.985933
0.986018
0.986066
0.986087
0.986087
0.986066
0.986018
0.985933
0.985804
0.985634
0.985435
0.985177
0.98476
0.984036
0.982954
0.981562
0.980183
0.97903
0.978604
0.978362
0.978872
0.980112
0.981557
0.982985
0.984068
0.984766
0.985157
0.985406
0.985608
0.985782
0.985914
0.986002
0.986056
0.986082
0.986082
0.986056
0.986002
0.985914
0.985782
0.985608
0.985406
0.985157
0.984766
0.984068
0.982985
0.981557
0.980112
0.978872
0.978362
0.978164
0.978748
0.980056
0.98155
0.982999
0.984076
0.984752
0.985125
0.985371
0.985578
0.985758
0.985894
0.985986
0.986046
0.986077
0.986077
0.986046
0.985986
0.985894
0.985758
0.985578
0.985371
0.985125
0.984752
0.984076
0.982999
0.98155
0.980056
0.978748
0.978164
0.978009
0.978659
0.980014
0.981541
0.982996
0.984061
0.98472
0.985085
0.985333
0.985547
0.985733
0.985873
0.985971
0.986036
0.986072
0.986072
0.986036
0.985971
0.985873
0.985733
0.985547
0.985333
0.985085
0.98472
0.984061
0.982996
0.981541
0.980014
0.978659
0.978009
0.977896
0.978603
0.979983
0.981527
0.982975
0.984024
0.984671
0.985036
0.985292
0.985516
0.985709
0.985854
0.985955
0.986025
0.986065
0.986065
0.986025
0.985955
0.985854
0.985709
0.985516
0.985292
0.985036
0.984671
0.984024
0.982975
0.981527
0.979983
0.978603
0.977896
0.977826
0.978578
0.97996
0.981505
0.982936
0.983965
0.984609
0.984982
0.98525
0.985485
0.985684
0.985833
0.985938
0.986013
0.986055
0.986055
0.986013
0.985938
0.985833
0.985684
0.985485
0.98525
0.984982
0.984609
0.983965
0.982936
0.981505
0.97996
0.978578
0.977826
0.977799
0.978582
0.979945
0.981475
0.982877
0.983887
0.984533
0.984924
0.985207
0.985452
0.985657
0.98581
0.985919
0.985997
0.986042
0.986042
0.985997
0.985919
0.98581
0.985657
0.985452
0.985207
0.984924
0.984533
0.983887
0.982877
0.981475
0.979945
0.978582
0.977799
0.977811
0.978613
0.979937
0.981435
0.982801
0.983791
0.984447
0.984861
0.985163
0.985417
0.985627
0.985783
0.985896
0.985979
0.986026
0.986026
0.985979
0.985896
0.985783
0.985627
0.985417
0.985163
0.984861
0.984447
0.983791
0.982801
0.981435
0.979937
0.978613
0.977811
0.977854
0.978667
0.979933
0.981385
0.982708
0.98368
0.98435
0.984793
0.985116
0.98538
0.985592
0.985753
0.985871
0.985959
0.986009
0.986009
0.985959
0.985871
0.985753
0.985592
0.98538
0.985116
0.984793
0.98435
0.98368
0.982708
0.981385
0.979933
0.978667
0.977854
0.977921
0.978741
0.979933
0.981327
0.982602
0.983558
0.984246
0.98472
0.985066
0.985338
0.985554
0.985718
0.985844
0.985938
0.985993
0.985993
0.985938
0.985844
0.985718
0.985554
0.985338
0.985066
0.98472
0.984246
0.983558
0.982602
0.981327
0.979933
0.978741
0.977921
0.978008
0.978831
0.979938
0.981262
0.982486
0.983428
0.984135
0.984643
0.985012
0.985294
0.985513
0.985681
0.985814
0.985916
0.985975
0.985975
0.985916
0.985814
0.985681
0.985513
0.985294
0.985012
0.984643
0.984135
0.983428
0.982486
0.981262
0.979938
0.978831
0.978008
0.978112
0.978932
0.979947
0.981193
0.982365
0.983293
0.984021
0.984561
0.984955
0.985247
0.985469
0.985643
0.985783
0.985892
0.985955
0.985955
0.985892
0.985783
0.985643
0.985469
0.985247
0.984955
0.984561
0.984021
0.983293
0.982365
0.981193
0.979947
0.978932
0.978112
0.978233
0.979039
0.979959
0.981122
0.98224
0.983156
0.983903
0.984476
0.984895
0.985197
0.985424
0.985602
0.985749
0.985863
0.98593
0.98593
0.985863
0.985749
0.985602
0.985424
0.985197
0.984895
0.984476
0.983903
0.983156
0.98224
0.981122
0.979959
0.979039
0.978233
0.97837
0.979149
0.979974
0.981051
0.982114
0.98302
0.983784
0.984387
0.98483
0.985144
0.985376
0.985559
0.985711
0.985829
0.985898
0.985898
0.985829
0.985711
0.985559
0.985376
0.985144
0.98483
0.984387
0.983784
0.98302
0.982114
0.981051
0.979974
0.979149
0.97837
0.97852
0.979261
0.979992
0.98098
0.981989
0.982884
0.983664
0.984294
0.98476
0.985087
0.985326
0.985513
0.985668
0.985789
0.985859
0.985859
0.985789
0.985668
0.985513
0.985326
0.985087
0.98476
0.984294
0.983664
0.982884
0.981989
0.98098
0.979992
0.979261
0.97852
0.978679
0.979374
0.980012
0.980912
0.981866
0.982748
0.983543
0.984198
0.984686
0.985027
0.985271
0.985462
0.985621
0.985744
0.985814
0.985814
0.985744
0.985621
0.985462
0.985271
0.985027
0.984686
0.984198
0.983543
0.982748
0.981866
0.980912
0.980012
0.979374
0.978679
0.978845
0.979488
0.980035
0.980847
0.981745
0.982615
0.98342
0.984098
0.984608
0.984962
0.985214
0.985409
0.98557
0.985695
0.985765
0.985765
0.985695
0.98557
0.985409
0.985214
0.984962
0.984608
0.984098
0.98342
0.982615
0.981745
0.980847
0.980035
0.979488
0.978845
0.979012
0.979599
0.980061
0.980786
0.981628
0.982483
0.983297
0.983995
0.984526
0.984895
0.985154
0.985352
0.985516
0.985642
0.985714
0.985714
0.985642
0.985516
0.985352
0.985154
0.984895
0.984526
0.983995
0.983297
0.982483
0.981628
0.980786
0.980061
0.979599
0.979012
0.979178
0.979707
0.980088
0.98073
0.981516
0.982354
0.983174
0.983889
0.984442
0.984826
0.985092
0.985293
0.985459
0.985587
0.98566
0.98566
0.985587
0.985459
0.985293
0.985092
0.984826
0.984442
0.983889
0.983174
0.982354
0.981516
0.98073
0.980088
0.979707
0.979178
0.979338
0.97981
0.980117
0.98068
0.981411
0.98223
0.983053
0.983783
0.984354
0.984753
0.985028
0.985232
0.985399
0.985529
0.985604
0.985604
0.985529
0.985399
0.985232
0.985028
0.984753
0.984354
0.983783
0.983053
0.98223
0.981411
0.98068
0.980117
0.97981
0.979338
0.979491
0.979906
0.980147
0.980638
0.981314
0.982112
0.982933
0.983675
0.984263
0.984678
0.98496
0.985167
0.985336
0.985468
0.985543
0.985543
0.985468
0.985336
0.985167
0.98496
0.984678
0.984263
0.983675
0.982933
0.982112
0.981314
0.980638
0.980147
0.979906
0.979491
0.979635
0.979996
0.98018
0.980604
0.981227
0.982001
0.982817
0.983566
0.984169