# vtk DataFile Version 3.0
Grid data
ASCII
DATASET STRUCTURED_POINTS
DIMENSIONS 30 300 1
ORIGIN 0 0 0
SPACING 0.00833333 0.00333333 1
POINT_DATA 9000
SCALARS rho double
LOOKUP_TABLE default
0.969297
0.969299
0.969359
0.969524
0.969742
0.970002
0.970289
0.970587
0.970859
0.971079
0.971238
0.971342
0.971404
0.971437
0.971451
0.971451
0.971438
0.971405
0.971344
0.971241
0.971083
0.970866
0.970596
0.9703
0.970014
0.969752
0.969528
0.969352
0.969283
0.969255
0.968385
0.968382
0.968439
0.968638
0.968873
0.969118
0.969379
0.969666
0.969951
0.9702
0.97039
0.970515
0.970585
0.970621
0.970636
0.970637
0.970622
0.970587
0.970517
0.970393
0.970205
0.969958
0.969675
0.969389
0.969128
0.968883
0.968643
0.968433
0.968368
0.96836
0.968437
0.96841
0.968412
0.968532
0.968657
0.968803
0.969014
0.96929
0.969581
0.969843
0.970048
0.970183
0.970259
0.970297
0.970313
0.970313
0.970298
0.97026
0.970184
0.97005
0.969846
0.969586
0.969296
0.969021
0.968809
0.968662
0.968535
0.968408
0.968399
0.96842
0.968891
0.968837
0.968753
0.968708
0.968683
0.968746
0.968923
0.969191
0.96949
0.969768
0.96999
0.97014
0.970226
0.970269
0.970288
0.970288
0.97027
0.970227
0.970141
0.969992
0.969771
0.969494
0.969197
0.968929
0.968751
0.968686
0.968709
0.968749
0.968827
0.968875
0.969495
0.969409
0.969238
0.969058
0.968945
0.968974
0.969136
0.969396
0.969692
0.969972
0.9702
0.970359
0.970452
0.9705
0.97052
0.970521
0.970501
0.970453
0.97036
0.970201
0.969974
0.969696
0.969402
0.969142
0.96898
0.968949
0.969059
0.969234
0.969401
0.969482
0.970032
0.969917
0.969683
0.96943
0.969259
0.969248
0.969384
0.969633
0.969925
0.970209
0.970445
0.970614
0.970716
0.970769
0.970791
0.970791
0.970769
0.970717
0.970614
0.970446
0.970211
0.969929
0.969638
0.96939
0.969254
0.969264
0.969431
0.96968
0.969909
0.97002
0.970433
0.97029
0.970005
0.969703
0.96949
0.969447
0.969561
0.969802
0.970095
0.970384
0.970629
0.970808
0.970919
0.970977
0.971
0.971
0.970977
0.970919
0.970808
0.970629
0.970385
0.970098
0.969807
0.969568
0.969454
0.969495
0.969705
0.970003
0.970284
0.970423
0.970665
0.9705
0.970172
0.969823
0.96957
0.969497
0.969594
0.969832
0.970132
0.970432
0.97069
0.970881
0.971002
0.971065
0.97109
0.97109
0.971065
0.971002
0.970881
0.97069
0.970434
0.970135
0.969838
0.969601
0.969504
0.969576
0.969827
0.970172
0.970495
0.970657
0.970775
0.970589
0.970226
0.969837
0.969547
0.969448
0.969529
0.969766
0.970073
0.970385
0.970657
0.970861
0.970991
0.97106
0.971087
0.971087
0.971059
0.970991
0.970861
0.970657
0.970386
0.970076
0.969771
0.969536
0.969455
0.969554
0.969842
0.970227
0.970587
0.970771
0.970833
0.970625
0.970228
0.969802
0.969478
0.969352
0.969418
0.969652
0.969966
0.97029
0.970575
0.970792
0.970931
0.971005
0.971035
0.971035
0.971005
0.970931
0.970792
0.970576
0.970291
0.969968
0.969656
0.969424
0.969359
0.969484
0.969807
0.970231
0.970625
0.970831
0.970906
0.970673
0.970241
0.969776
0.96942
0.96927
0.96932
0.969549
0.969868
0.970203
0.970501
0.970729
0.970877
0.970957
0.970989
0.970989
0.970956
0.970877
0.970729
0.970501
0.970204
0.96987
0.969553
0.969326
0.969277
0.969427
0.969782
0.970244
0.970674
0.970906
0.971031
0.970773
0.970301
0.969795
0.969406
0.969234
0.969269
0.969494
0.969815
0.97016
0.97047
0.970709
0.970866
0.970952
0.970987
0.970987
0.970951
0.970865
0.970709
0.97047
0.97016
0.969817
0.969497
0.969274
0.969241
0.969413
0.969801
0.970305
0.970775
0.971032
0.971217
0.970937
0.970423
0.969873
0.969449
0.969254
0.969276
0.969497
0.969822
0.970174
0.970494
0.970745
0.970911
0.971003
0.971042
0.971042
0.971003
0.97091
0.970744
0.970494
0.970174
0.969823
0.9695
0.969281
0.969261
0.969455
0.969879
0.970427
0.97094
0.971219
0.971447
0.971152
0.970601
0.970004
0.969539
0.969318
0.969327
0.969544
0.969873
0.970233
0.970563
0.970824
0.971
0.971099
0.971142
0.971142
0.971099
0.970999
0.970823
0.970563
0.970233
0.969875
0.969547
0.969331
0.969324
0.969545
0.97001
0.970606
0.971155
0.971449
0.971689
0.971391
0.970817
0.97018
0.969669
0.969413
0.969401
0.969612
0.969945
0.970313
0.970653
0.970923
0.971109
0.971215
0.971262
0.971262
0.971215
0.971108
0.970922
0.970652
0.970313
0.969946
0.969614
0.969404
0.969419
0.969676
0.970187
0.970822
0.971396
0.971693
0.971917
0.971626
0.971046
0.970387
0.969835
0.969536
0.969491
0.969687
0.97002
0.970394
0.970742
0.971022
0.971216
0.971329
0.971379
0.971379
0.971328
0.971215
0.971021
0.970741
0.970393
0.97002
0.969689
0.969495
0.969541
0.969842
0.970394
0.971052
0.971632
0.971922
0.972119
0.971837
0.971265
0.970603
0.970027
0.96969
0.969606
0.969775
0.970096
0.970471
0.970825
0.971112
0.971313
0.971432
0.971485
0.971485
0.971431
0.971312
0.971111
0.970824
0.97047
0.970097
0.969777
0.96961
0.969696
0.970034
0.97061
0.971271
0.971844
0.972125
0.972296
0.97202
0.971457
0.970803
0.970223
0.969864
0.969749
0.969888
0.970188
0.970555
0.970909
0.971201
0.971408
0.971532
0.971587
0.971587
0.971531
0.971407
0.9712
0.970908
0.970554
0.970189
0.96989
0.969754
0.96987
0.97023
0.97081
0.971464
0.972027
0.972303
0.972454
0.97218
0.971621
0.970975
0.970398
0.970034
0.969903
0.97002
0.970301
0.970655
0.971006
0.971301
0.971515
0.971644
0.971703
0.971703
0.971644
0.971514
0.9713
0.971005
0.970654
0.970302
0.970023
0.969908
0.97004
0.970404
0.970981
0.971628
0.972187
0.97246
0.972595
0.972324
0.971764
0.971118
0.970541
0.970175
0.970039
0.970146
0.970417
0.970765
0.971115
0.971416
0.971638
0.971774
0.971837
0.971837
0.971774
0.971637
0.971415
0.971114
0.970765
0.970418
0.970149
0.970043
0.97018
0.970547
0.971124
0.97177
0.97233
0.972601
0.972717
0.972451
0.971891
0.971244
0.970659
0.970283
0.970138
0.97024
0.970512
0.970863
0.97122
0.97153
0.971762
0.971907
0.971975
0.971974
0.971907
0.971761
0.971529
0.971219
0.970863
0.970512
0.970242
0.970141
0.970287
0.970664
0.97125
0.971896
0.972456
0.972722
0.972813
0.972556
0.972002
0.971359
0.970767
0.970373
0.970208
0.970297
0.970567
0.970928
0.971299
0.971621
0.971864
0.972018
0.97209
0.972089
0.972017
0.971863
0.97162
0.971298
0.970928
0.970567
0.970298
0.970211
0.970378
0.970772
0.971365
0.972007
0.97256
0.972817
0.97288
0.972635
0.972094
0.971463
0.970871
0.970461
0.97027
0.970333
0.97059
0.970954
0.971336
0.971672
0.971925
0.972087
0.972163
0.972163
0.972087
0.971925
0.971671
0.971335
0.970953
0.97059
0.970335
0.970274
0.970466
0.970876
0.971468
0.972098
0.972638
0.972882
0.972916
0.972685
0.972162
0.971549
0.970965
0.970549
0.970336
0.970368
0.9706
0.970953
0.971337
0.971682
0.971945
0.972114
0.972195
0.972194
0.972114
0.971944
0.97168
0.971336
0.970953
0.970601
0.970371
0.97034
0.970554
0.97097
0.971553
0.972165
0.972687
0.972917
0.972923
0.972708
0.972207
0.971614
0.971043
0.970627
0.970401
0.970408
0.970612
0.970943
0.971317
0.971664
0.971935
0.972112
0.972196
0.972195
0.972111
0.971934
0.971663
0.971316
0.970943
0.970613
0.970412
0.970406
0.970632
0.971047
0.971618
0.972209
0.972708
0.972922
0.972903
0.972706
0.972231
0.97166
0.971101
0.970686
0.970454
0.970443
0.970624
0.970933
0.971293
0.971636
0.97191
0.972093
0.972182
0.972181
0.972093
0.97191
0.971635
0.971292
0.970934
0.970626
0.970447
0.970458
0.970691
0.971105
0.971663
0.972232
0.972706
0.972901
0.972859
0.972683
0.972237
0.971691
0.971142
0.970726
0.970485
0.970462
0.970626
0.97092
0.971268
0.971605
0.971882
0.97207
0.972163
0.972163
0.97207
0.971881
0.971605
0.971268
0.970922
0.970629
0.970466
0.97049
0.970731
0.971146
0.971694
0.972237
0.972682
0.972856
0.972794
0.972641
0.972229
0.971711
0.971174
0.970752
0.970498
0.97046
0.970611
0.970897
0.971239
0.971574
0.971853
0.972046
0.972143
0.972143
0.972046
0.971852
0.971574
0.971239
0.970898
0.970614
0.970464
0.970503
0.970757
0.971178
0.971713
0.972229
0.972639
0.972791
0.972713
0.972582
0.972208
0.971722
0.9712
0.970772
0.970502
0.970442
0.970578
0.970857
0.971198
0.971536
0.97182
0.97202
0.972121
0.972121
0.972019
0.971819
0.971535
0.971198
0.970858
0.970581
0.970447
0.970507
0.970777
0.971203
0.971724
0.972207
0.97258
0.972708
0.972618
0.97251
0.972175
0.971725
0.971221
0.97079
0.970502
0.970418
0.970533
0.9708
0.971141
0.971484
0.971777
0.971986
0.972094
0.972094
0.971986
0.971776
0.971484
0.971141
0.970802
0.970536
0.970423
0.970507
0.970795
0.971225
0.971727
0.972174
0.972507
0.972613
0.972514
0.972428
0.972132
0.97172
0.971238
0.970807
0.970502
0.970393
0.970482
0.970732
0.971068
0.971417
0.971721
0.971941
0.972055
0.972054
0.97194
0.97172
0.971417
0.971069
0.970735
0.970486
0.970398
0.970508
0.970812
0.971242
0.971721
0.972131
0.972423
0.972508
0.972403
0.972336
0.97208
0.971707
0.97125
0.970823
0.970503
0.970369
0.970431
0.97066
0.970986
0.971336
0.971649
0.971879
0.972
0.972
0.971878
0.971648
0.971336
0.970987
0.970663
0.970435
0.970375
0.970509
0.970828
0.971253
0.971708
0.972078
0.972332
0.972396
0.972289
0.972239
0.972018
0.971684
0.971255
0.970836
0.970505
0.970348
0.970382
0.970588
0.970899
0.971245
0.971563
0.971803
0.97193
0.97193
0.971802
0.971562
0.971245
0.9709
0.970591
0.970387
0.970354
0.970511
0.970841
0.971259
0.971685
0.972016
0.972233
0.972281
0.972172
0.972136
0.971948
0.971652
0.971253
0.970844
0.970507
0.970328
0.970336
0.970517
0.970811
0.97115
0.971469
0.971714
0.971847
0.971846
0.971713
0.971468
0.97115
0.970813
0.970521
0.970342
0.970334
0.970513
0.97085
0.971256
0.971652
0.971945
0.97213
0.972164
0.972055
0.97203
0.971871
0.971609
0.971241
0.970847
0.970506
0.970309
0.970293
0.97045
0.970725
0.971054
0.97137
0.971618
0.971754
0.971754
0.971618
0.97137
0.971054
0.970728
0.970454
0.970299
0.970316
0.970512
0.970853
0.971244
0.971609
0.971867
0.972023
0.972046
0.971936
0.97192
0.971786
0.971556
0.971218
0.970843
0.970501
0.970289
0.97025
0.970384
0.970641
0.970958
0.971271
0.971519
0.971657
0.971657
0.971519
0.97127
0.97096
0.970644
0.970389
0.970257
0.970296
0.970508
0.970848
0.971221
0.971555
0.971781
0.971913
0.971927
0.971816
0.971807
0.971693
0.971492
0.971184
0.970829
0.970492
0.970268
0.970207
0.970319
0.970558
0.970864
0.971171
0.971418
0.971557
0.971556
0.971418
0.971171
0.970866
0.970562
0.970325
0.970215
0.970275
0.970499
0.970835
0.971187
0.971491
0.971688
0.971799
0.971806
0.971693
0.971691
0.971595
0.971419
0.971139
0.970806
0.970476
0.970243
0.970164
0.970254
0.970475
0.970769
0.97107
0.971316
0.971454
0.971454
0.971315
0.97107
0.970771
0.97048
0.970261
0.970172
0.970251
0.970483
0.970811
0.971141
0.971417
0.971589
0.971682
0.971684
0.971568
0.97157
0.97149
0.971336
0.971082
0.970772
0.970454
0.970216
0.97012
0.970189
0.970392
0.970674
0.970968
0.971211
0.971348
0.971348
0.971211
0.970969
0.970676
0.970397
0.970196
0.970128
0.970224
0.970461
0.970777
0.971084
0.971333
0.971484
0.971562
0.971558
0.97144
0.971447
0.97138
0.971244
0.971014
0.970727
0.970423
0.970185
0.970075
0.970125
0.97031
0.970578
0.970865
0.971105
0.971241
0.971241
0.971105
0.970866
0.970581
0.970315
0.970132
0.970084
0.970194
0.970431
0.970731
0.971015
0.97124
0.971373
0.971438
0.97143
0.971308
0.97132
0.971265
0.971145
0.970935
0.97067
0.970384
0.970149
0.970029
0.970061
0.970228
0.970483
0.970763
0.970999
0.971134
0.971134
0.971
0.970765
0.970487
0.970234
0.970069
0.970039
0.970158
0.970391
0.970674
0.970935
0.97114
0.971258
0.971311
0.971298
0.971173
0.971191
0.971148
0.97104
0.970847
0.970601
0.970335
0.970109
0.969983
0.969998
0.970146
0.970388
0.97066
0.970894
0.971028
0.971028
0.970895
0.970663
0.970392
0.970153
0.970006
0.969993
0.970118
0.970342
0.970605
0.970846
0.971035
0.97114
0.971181
0.971163
0.971035
0.971059
0.971029
0.970932
0.970751
0.970521
0.970274
0.970062
0.969936
0.969937
0.970066
0.970292
0.970555
0.970785
0.970919
0.970919
0.970787
0.970558
0.970297
0.970073
0.969946
0.969946
0.970071
0.97028
0.970523
0.970749
0.970926
0.97102
0.97105
0.971025
0.970896
0.970927
0.970909
0.970822
0.97065
0.97043
0.9702
0.970006
0.969886
0.969879
0.96999
0.970197
0.970447
0.970671
0.970803
0.970804
0.970673
0.97045
0.970202
0.969998
0.969889
0.969897
0.970015
0.970206
0.970432
0.970646
0.970816
0.9709
0.970917
0.970886
0.970756
0.970793
0.970789
0.970713
0.970547
0.970332
0.970112
0.969935
0.96983
0.969824
0.969922
0.970109
0.970341
0.970555
0.970683
0.970683
0.970557
0.970345
0.970115
0.969931
0.969835
0.969841
0.969944
0.970117
0.970332
0.970542
0.970706
0.970781
0.970784
0.970747
0.970617
0.970659
0.970668
0.970604
0.970444
0.970229
0.970011
0.969847
0.96976
0.969766
0.969862
0.970033
0.970247
0.970446
0.970566
0.970567
0.970448
0.970251
0.97004
0.969872
0.969778
0.969771
0.969855
0.970015
0.970228
0.970439
0.970597
0.97066
0.97065
0.970608
0.970481
0.970525
0.970544
0.970493
0.970343
0.970128
0.969905
0.969741
0.969667
0.969692
0.969799
0.969967
0.970167
0.970352
0.970464
0.970465
0.970355
0.970173
0.969976
0.969811
0.969705
0.969679
0.969748
0.969907
0.970126
0.970338
0.970486
0.970536
0.970517
0.970473
0.970351
0.970391
0.970416
0.970378
0.970243
0.970032
0.969799
0.969623
0.969551
0.969591
0.969719
0.969898
0.970096
0.970271
0.970376
0.970377
0.970275
0.970102
0.969908
0.969731
0.969604
0.969561
0.969629
0.9698
0.970029
0.970237
0.970371
0.970408
0.970384
0.970343
0.970226
0.97026
0.970283
0.970255
0.970138
0.969941
0.969703
0.969507
0.969418
0.96946
0.969605
0.969806
0.970013
0.970186
0.970286
0.970287
0.97019
0.970021
0.969817
0.969619
0.969473
0.969427
0.969511
0.969702
0.969936
0.970131
0.970248
0.970276
0.970253
0.970219
0.970108
0.970133
0.970148
0.970122
0.970023
0.969847
0.969618
0.969405
0.969286
0.969309
0.969457
0.969675
0.969898
0.970075
0.970173
0.970174
0.97008
0.969907
0.969687
0.969471
0.969321
0.969294
0.969407
0.969616
0.969842
0.970016
0.970115
0.970141
0.970126
0.970102
0.969997
0.970011
0.970013
0.969982
0.969894
0.969744
0.969537
0.969322
0.969175
0.969163
0.96929
0.969508
0.969742
0.969927
0.970027
0.970029
0.969933
0.969752
0.969521
0.969303
0.969173
0.969181
0.969322
0.969534
0.969739
0.969887
0.969975
0.970006
0.970005
0.969992
0.969891
0.969896
0.969882
0.969839
0.969752
0.969624
0.969449
0.969253
0.969095
0.969046
0.969133
0.969327
0.969558
0.969752
0.969859
0.969861
0.969759
0.969569
0.96934
0.969144
0.969053
0.969098
0.969252
0.969445
0.969618
0.969746
0.969832
0.969877
0.96989
0.969886
0.969787
0.969785
0.969758
0.969697
0.969602
0.969485
0.969341
0.969182
0.969038
0.968968
0.96901
0.969162
0.969374
0.969571
0.969687
0.96969
0.969579
0.969386
0.969174
0.969019
0.968972
0.969038
0.969179
0.969337
0.969479
0.969596
0.969691
0.969753
0.969781
0.969784
0.969684
0.969677
0.969638
0.969561
0.96945
0.96933
0.969209
0.96909
0.968983
0.968919
0.968933
0.969041
0.96922
0.969407
0.969526
0.969529
0.969416
0.969231
0.969051
0.968939
0.968921
0.968981
0.969086
0.969203
0.969324
0.969444
0.969555
0.969634
0.969673
0.969681
0.969576
0.969566
0.969519
0.969428
0.969299
0.969166
0.969052
0.968965
0.968904
0.968875
0.968891
0.968971
0.969111
0.969268
0.969374
0.969377
0.969276
0.969121
0.968978
0.968895
0.968874
0.9689
0.96896
0.969046
0.96916
0.969293
0.969423
0.969516
0.969563
0.969574
0.969459
0.969447
0.969395
0.969293
0.969148
0.968998
0.968876
0.968806
0.968785
0.968807
0.968857
0.968935
0.96904
0.969151
0.969224
0.969227
0.969157
0.969047
0.968939
0.968858
0.968805
0.968781
0.9688
0.96887
0.968992
0.969143
0.969289
0.969392
0.969445
0.969457
0.969327
0.969314
0.969259
0.96915
0.968993
0.968826
0.968689
0.968619
0.968625
0.968694
0.968794
0.968894
0.96898
0.969046
0.969082
0.969083
0.969049
0.968983
0.968895
0.968793
0.96869
0.968619
0.968613
0.968682
0.968819
0.968988
0.969147
0.969256
0.969312
0.969326
0.969175
0.969161
0.969104
0.96899
0.968825
0.968644
0.968491
0.968412
0.968425
0.968524
0.96867
0.968807
0.968901
0.968948
0.968963
0.968963
0.968948
0.968901
0.968805
0.968666
0.968519
0.968417
0.968404
0.968484
0.968638
0.968821
0.968987
0.969102
0.96916
0.969174
0.968995
0.968981
0.968923
0.968806
0.968634
0.968443
0.968276
0.968182
0.968187
0.968294
0.968467
0.968647
0.968781
0.968855
0.968882
0.968882
0.968855
0.968779
0.968643
0.968462
0.968287
0.968178
0.968173
0.968268
0.968437
0.96863
0.968803
0.968921
0.96898
0.968993
0.968779
0.968766
0.968708
0.968588
0.968412
0.968212
0.968033
0.967923
0.967911
0.968009
0.968194
0.968417
0.968618
0.968761
0.968831
0.968831
0.96876
0.968615
0.968411
0.968186
0.967999
0.9679
0.967913
0.968025
0.968207
0.968409
0.968586
0.968706
0.968765
0.968777
0.96852
0.96851
0.968453
0.968332
0.968152
0.967943
0.967751
0.967624
0.967594
0.967679
0.967872
0.968137
0.968416
0.968644
0.96877
0.96877
0.968643
0.968412
0.968131
0.967863
0.967668
0.967583
0.967614
0.967744
0.967938
0.968149
0.96833
0.96845
0.968507
0.968518
0.968217
0.968209
0.968154
0.968035
0.967851
0.967633
0.967427
0.967284
0.96724
0.967319
0.967524
0.967828
0.968172
0.968472
0.968646
0.968646
0.968471
0.968168
0.967822
0.967514
0.967307
0.967228
0.967275
0.96742
0.967629
0.967848
0.968033
0.968152
0.968206
0.968214
0.967873
0.967867
0.967816
0.967699
0.967512
0.967285
0.967065
0.966908
0.966855
0.966935
0.967155
0.967491
0.967876
0.968216
0.968416
0.968415
0.968215
0.967872
0.967484
0.967145
0.966923
0.966844
0.966899
0.967058
0.96728
0.967508
0.967696
0.967814
0.967864
0.96787
0.967497
0.967493
0.967445
0.967329
0.96714
0.966905
0.966672
0.966502
0.966442
0.966524
0.966756
0.96711
0.967512
0.967865
0.968071
0.96807
0.967863
0.967508
0.967103
0.966747
0.966513
0.966431
0.966493
0.966665
0.9669
0.967136
0.967325
0.967441
0.967489
0.967493
0.967097
0.967093
0.967047
0.966933
0.966743
0.966501
0.966257
0.966073
0.966
0.966076
0.96631
0.96667
0.967077
0.967432
0.967637
0.967636
0.967429
0.967073
0.966664
0.966303
0.966068
0.965991
0.966064
0.966249
0.966495
0.966737
0.966928
0.967042
0.967088
0.967092
0.966682
0.966679
0.966633
0.96652
0.96633
0.966084
0.965827
0.965625
0.965533
0.965593
0.96582
0.966179
0.966591
0.96695
0.967157
0.967156
0.966947
0.966587
0.966175
0.965815
0.965587
0.965526
0.965617
0.965819
0.966076
0.966323
0.966514
0.966626
0.966672
0.966675
0.966266
0.966262
0.966218
0.966108
0.965918
0.965667
0.965397
0.965173
0.965056
0.965096
0.965311
0.965671
0.96609
0.96646
0.966674
0.966673
0.966458
0.966088
0.965668
0.965309
0.965092
0.965051
0.965167
0.96539
0.965659
0.96591
0.966099
0.966209
0.966253
0.966257
0.965866
0.965864
0.965823
0.965716
0.965528
0.965272
0.964988
0.964742
0.9646
0.964622
0.964828
0.96519
0.965619
0.966
0.966222
0.966221
0.965999
0.965618
0.96519
0.964828
0.964621
0.964599
0.964738
0.964982
0.965264
0.965519
0.965706
0.965813
0.965854
0.965856
0.965512
0.96551
0.965473
0.96537
0.965183
0.964921
0.964626
0.964364
0.964206
0.964214
0.964416
0.964778
0.965211
0.965598
0.965824
0.965824
0.965598
0.965212
0.964779
0.964418
0.964217
0.964207
0.964363
0.964623
0.964916
0.965175
0.965361
0.965463
0.965501
0.965502
0.965231
0.96523
0.965194
0.965093
0.964905
0.96464
0.96434
0.96407
0.963905
0.963907
0.964101
0.964457
0.964886
0.965269
0.965494
0.965495
0.96527
0.964887
0.96446
0.964105
0.963911
0.963909
0.964073
0.964339
0.964637
0.964899
0.965085
0.965186
0.965221
0.965222
0.965045
0.965041
0.965003
0.9649
0.964711
0.964447
0.96415
0.963883
0.963717
0.963713
0.963895
0.964235
0.964648
0.965019
0.965238
0.965239
0.965021
0.964651
0.964239
0.9639
0.963719
0.963723
0.963887
0.964151
0.964446
0.964707
0.964895
0.964997
0.965035
0.965038
0.964957
0.96495
0.964907
0.964801
0.964613
0.964355
0.964068
0.96381
0.963644
0.96363
0.963793
0.964108
0.964497
0.964849
0.965058
0.965059
0.964851
0.9645
0.964114
0.9638
0.963637
0.963651
0.963815
0.964071
0.964356
0.964612
0.964798
0.964904
0.964946
0.964952
0.964956
0.964948
0.964902
0.964797
0.964616
0.964371
0.964097
0.963847
0.963679
0.963651
0.963789
0.964074
0.964432
0.96476
0.964955
0.964956
0.964762
0.964437
0.964081
0.963797
0.963659
0.963687
0.963853
0.964101
0.964373
0.964616
0.964796
0.9649
0.964945
0.964953
0.965026
0.965021
0.964981
0.964885
0.964718
0.964489
0.964228
0.963982
0.963809
0.963765
0.963879
0.964132
0.964455
0.964751
0.964928
0.964929
0.964754
0.96446
0.964139
0.963888
0.963774
0.963817
0.963989
0.964233
0.964492
0.96472
0.964885
0.96498
0.96502
0.965025
0.965162
0.965164
0.965138
0.965058
0.96491
0.964695
0.964442
0.964197
0.964018
0.963962
0.964055
0.964276
0.96456
0.96482
0.964974
0.964975
0.964822
0.964565
0.964283
0.964063
0.963972
0.964027
0.964205
0.964448
0.964699
0.964911
0.965058
0.965137
0.965163
0.965161
0.965367
0.965378
0.965368
0.965305
0.965171
0.964967
0.964718
0.964473
0.964291
0.964227
0.964302
0.964491
0.964734
0.964954
0.965083
0.965083
0.964956
0.964738
0.964497
0.96431
0.964237
0.964301
0.964481
0.964724
0.964971
0.965173
0.965305
0.965368
0.965378
0.965367
0.965652
0.965668
0.965666
0.965611
0.965483
0.965282
0.965034
0.96479
0.96461
0.96454
0.964597
0.964753
0.964954
0.965133
0.965237
0.965237
0.965134
0.964957
0.964758
0.964604
0.964549
0.964619
0.964799
0.965041
0.965286
0.965486
0.965612
0.965667
0.965669
0.965654
0.966016
0.966029
0.966022
0.965961
0.965828
0.965624
0.965376
0.965137
0.964959
0.964883
0.964917
0.965038
0.965195
0.965336
0.965417
0.965417
0.965336
0.965197
0.965041
0.964923
0.96489
0.964967
0.965145
0.965384
0.965629
0.965832
0.965964
0.966025
0.966032
0.966019
0.966435
0.966439
0.966418
0.96634
0.966195
0.965985
0.96574
0.965505
0.965326
0.965238
0.965244
0.965325
0.96544
0.965547
0.965609
0.965608
0.965546
0.965441
0.965326
0.965247
0.965244
0.965334
0.965513
0.965748
0.965992
0.9662
0.966345
0.966422
0.966443
0.96644
0.966869
0.966864
0.966825
0.96673
0.966574
0.966363
0.966121
0.965888
0.965704
0.965594
0.965565
0.965603
0.965679
0.965756
0.965803
0.965802
0.965755
0.965679
0.965604
0.965567
0.965598
0.96571
0.965896
0.966129
0.966371
0.966581
0.966737
0.96683
0.966869
0.966874
0.967273
0.967263
0.967214
0.967112
0.966954
0.966746
0.966509
0.966275
0.966077
0.965939
0.965871
0.965868
0.965908
0.965961
0.965995
0.965995
0.96596
0.965907
0.965867
0.965871
0.965941
0.966082
0.966282
0.966517
0.966755
0.966962
0.96712
0.967221
0.967269
0.967279
0.967614
0.967606
0.967561
0.967465
0.967316
0.967117
0.966885
0.966645
0.966427
0.966257
0.966149
0.966109
0.96612
0.966154
0.96618
0.966179
0.966153
0.966118
0.966106
0.966148
0.966257
0.96643
0.96665
0.966893
0.967126
0.967325
0.967474
0.967569
0.967612
0.967619
0.967879
0.96788
0.967851
0.967772
0.96764
0.967453
0.967223
0.966972
0.966731
0.966527
0.966384
0.966312
0.966302
0.966324
0.966345
0.966344
0.966322
0.966299
0.966309
0.96638
0.966525
0.966731
0.966976
0.967229
0.967461
0.967649
0.967781
0.967858
0.967886
0.967884
0.968074
0.968086
0.968077
0.968021
0.967909
0.967733
0.967501
0.967234
0.966966
0.96673
0.966557
0.966463
0.96644
0.966455
0.966474
0.966473
0.966453
0.966436
0.966459
0.966552
0.966726
0.966964
0.967236
0.967505
0.96774
0.967917
0.96803
0.968085
0.968093
0.96808
0.968215
0.968236
0.968245
0.96821
0.968114
0.967944
0.967706
0.967419
0.967122
0.966856
0.966659
0.966551
0.966521
0.966535
0.966553
0.966553
0.966533
0.966517
0.966546
0.966654
0.966851
0.967119
0.967418
0.967708
0.96795
0.968122
0.968218
0.968253
0.968243
0.968221
0.968314
0.968341
0.968363
0.968342
0.968257
0.968088
0.967836
0.967526
0.9672
0.966908
0.966693
0.966576
0.966544
0.96656
0.966579
0.966578
0.966557
0.96654
0.96657
0.966686
0.966902
0.967195
0.967523
0.967837
0.968092
0.968264
0.96835
0.968372
0.968349
0.968321
0.968382
0.968412
0.968442
0.968428
0.968347
0.968171
0.967902
0.967565
0.967211
0.966897
0.966668
0.966547
0.966517
0.966535
0.966557
0.966556
0.966533
0.966513
0.966541
0.966661
0.96689
0.967205
0.967561
0.967901
0.968175
0.968354
0.968437
0.968451
0.96842
0.968391
0.968426
0.968457
0.968491
0.968479
0.968396
0.968207
0.967915
0.96755
0.967171
0.966838
0.966601
0.966479
0.966452
0.966473
0.966496
0.966495
0.96647
0.966447
0.966473
0.966593
0.96683
0.967164
0.967545
0.967913
0.968209
0.968402
0.968487
0.9685
0.968466
0.968436
0.968452
0.968483
0.968519
0.968504
0.968412
0.968205
0.967887
0.967495
0.967093
0.966746
0.966504
0.966384
0.96636
0.966384
0.966409
0.966409
0.966381
0.966355
0.966377
0.966497
0.966738
0.967086
0.96749
0.967885
0.968207
0.968418
0.968512
0.968528
0.968493
0.968463
0.968469
0.968498
0.968533
0.968511
0.968404
0.968173
0.967828
0.967411
0.966991
0.966635
0.966391
0.966272
0.966251
0.966279
0.966306
0.966305
0.966276
0.966246
0.966265
0.966383
0.966627
0.966984
0.967405
0.967825
0.968174
0.968408
0.968518
0.968543
0.968509
0.968481
0.968486
0.96851
0.96854
0.968503
0.968374
0.968115
0.967744
0.967308
0.966876
0.966514
0.966268
0.96615
0.966132
0.966162
0.966192
0.966191
0.96616
0.966127
0.966144
0.96626
0.966506
0.966868
0.967302
0.967741
0.968115
0.968378
0.968511
0.96855
0.968522
0.968499
0.96851
0.968527
0.968544
0.968485
0.968326
0.968037
0.967642
0.967192
0.966753
0.966388
0.966142
0.966024
0.966007
0.966041
0.966072
0.966071
0.966038
0.966003
0.966018
0.966134
0.96638
0.966745
0.967185
0.967638
0.968036
0.968329
0.968491
0.968554
0.96854
0.968525
0.968547
0.968548
0.968544
0.968455
0.968262
0.967943
0.967528
0.967068
0.966626
0.966261
0.966014
0.965896
0.965881
0.965916
0.965949
0.965948
0.965914
0.965877
0.96589
0.966006
0.966253
0.966618
0.967061
0.967523
0.967941
0.968264
0.968461
0.968555
0.968562
0.968562
0.968593
0.968574
0.968539
0.968413
0.968185
0.967839
0.967407
0.966939
0.966495
0.96613
0.965883
0.965767
0.965753
0.965789
0.965823
0.965822
0.965787
0.965749
0.965761
0.965876
0.966122
0.966488
0.966933
0.967403
0.967837
0.968186
0.968419
0.968549
0.968588
0.96861
0.968642
0.968597
0.968523
0.968358
0.968097
0.967729
0.967285
0.966808
0.96636
0.965993
0.965748
0.965634
0.965621
0.965657
0.965689
0.965688
0.965654
0.965617
0.965628
0.965742
0.965986
0.966353
0.966802
0.96728
0.967727
0.968097
0.968362
0.968533
0.968612
0.968659
0.968677
0.968609
0.968494
0.96829
0.968001
0.967616
0.967159
0.966674
0.966219
0.96585
0.965606
0.965494
0.965481
0.965515
0.965545
0.965545
0.965513
0.965478
0.96549
0.965601
0.965844
0.966213
0.966669
0.967155
0.967613
0.968
0.968294
0.968503
0.968622
0.968693
0.96868
0.968597
0.968453
0.968216
0.967901
0.967497
0.967028
0.966532
0.966071
0.9657
0.965459
0.965348
0.965333
0.965361
0.965388
0.965387
0.96536
0.96533
0.965344
0.965454
0.965695
0.966066
0.966528
0.967024
0.967494
0.9679
0.968219
0.968461
0.968609
0.968694
0.968633
0.968551
0.968398
0.968141
0.967802
0.967375
0.966886
0.966379
0.965913
0.965544
0.965305
0.965194
0.965174
0.965195
0.965217
0.965216
0.965194
0.965171
0.965191
0.965302
0.965541
0.965909
0.966375
0.966882
0.967372
0.967801
0.968144
0.968404
0.968561
0.968645
0.968532
0.968462
0.968323
0.968064
0.967707
0.96725
0.966735
0.966213
0.965745
0.965381
0.965145
0.965032
0.965004
0.965017
0.965033
0.965032
0.965016
0.965002
0.96503
0.965143
0.965379
0.965743
0.96621
0.966732
0.967247
0.967706
0.968067
0.968328
0.96847
0.968541
0.968388
0.968333
0.968219
0.967973
0.967606
0.967124
0.966582
0.966043
0.965571
0.965209
0.964975
0.964858
0.964823
0.964828
0.964839
0.964839
0.964827
0.964822
0.964858
0.964975
0.965209
0.96557
0.966041
0.96658
0.967122
0.967606
0.967975
0.968223
0.968338
0.968393
0.968228
0.968177
0.968079
0.967847
0.967481
0.96699
0.966433
0.965881
0.965401
0.965034
0.964795
0.964672
0.964631
0.964631
0.964639