# vtk DataFile Version 3.0
Grid data
ASCII
DATASET STRUCTURED_POINTS
DIMENSIONS 30 300 1
ORIGIN 0 0 0
SPACING 0.00833333 0.00333333 1
POINT_DATA 9000
SCALARS rho double
LOOKUP_TABLE default
0.967807
0.967802
0.967796
0.967787
0.967771
0.967739
0.967684
0.967616
0.967551
0.967499
0.967455
0.96742
0.967405
0.967414
0.967428
0.967428
0.967413
0.967404
0.967419
0.967455
0.967499
0.967551
0.967615
0.967684
0.967739
0.967772
0.967788
0.967797
0.967804
0.967811
0.96682
0.966819
0.966825
0.966838
0.966849
0.966842
0.966809
0.966763
0.966727
0.966719
0.96674
0.966784
0.966841
0.966897
0.966933
0.966933
0.966897
0.966841
0.966784
0.966741
0.966719
0.966727
0.966762
0.966808
0.966841
0.966849
0.96684
0.966829
0.966824
0.966827
0.966937
0.966939
0.966955
0.966981
0.967005
0.967014
0.967002
0.966976
0.966952
0.966945
0.966975
0.967046
0.967136
0.967216
0.967261
0.967261
0.967216
0.967137
0.967047
0.966976
0.966944
0.96695
0.966975
0.967
0.967012
0.967005
0.966983
0.966961
0.966946
0.966946
0.967527
0.967529
0.967542
0.967559
0.967568
0.967558
0.967532
0.967499
0.967473
0.96747
0.967511
0.967597
0.967702
0.96779
0.967839
0.967839
0.96779
0.967703
0.967597
0.967511
0.967469
0.96747
0.967496
0.967529
0.967556
0.967567
0.967561
0.967549
0.967538
0.967538
0.968283
0.968282
0.968287
0.968287
0.968274
0.968244
0.968206
0.968177
0.968167
0.968186
0.968238
0.96832
0.968414
0.968494
0.96854
0.96854
0.968495
0.968415
0.96832
0.968238
0.968185
0.968165
0.968173
0.968202
0.96824
0.968273
0.96829
0.968294
0.968292
0.968294
0.968928
0.968923
0.968916
0.968893
0.968853
0.968799
0.96875
0.968723
0.96873
0.96877
0.968834
0.968919
0.969013
0.969093
0.969138
0.969138
0.969093
0.969013
0.968919
0.968834
0.968768
0.968727
0.968719
0.968745
0.968795
0.968851
0.968895
0.968922
0.968932
0.968939
0.969353
0.969342
0.969322
0.969278
0.969217
0.969148
0.969093
0.969072
0.969095
0.969154
0.969236
0.969333
0.969433
0.969516
0.969562
0.969562
0.969516
0.969433
0.969333
0.969236
0.969153
0.969092
0.969069
0.969089
0.969145
0.969216
0.96928
0.969327
0.96935
0.969361
0.969527
0.969512
0.96948
0.969422
0.969348
0.96927
0.969212
0.969193
0.969226
0.969303
0.969407
0.969523
0.969638
0.969731
0.969782
0.969782
0.969731
0.969638
0.969523
0.969406
0.969302
0.969224
0.96919
0.969209
0.969268
0.969347
0.969424
0.969483
0.969517
0.969532
0.969516
0.969498
0.969459
0.969393
0.969312
0.969231
0.969171
0.969154
0.969195
0.969289
0.969415
0.96955
0.969676
0.969777
0.969833
0.969833
0.969777
0.969677
0.96955
0.969415
0.969288
0.969194
0.969152
0.969169
0.969229
0.969312
0.969394
0.969461
0.969501
0.96952
0.969403
0.969381
0.969336
0.969264
0.969177
0.969091
0.969028
0.96901
0.969056
0.969163
0.96931
0.969468
0.969609
0.969718
0.969778
0.969778
0.969718
0.969609
0.969468
0.96931
0.969162
0.969055
0.969009
0.969027
0.96909
0.969177
0.969265
0.969338
0.969384
0.969406
0.969261
0.969235
0.969183
0.969101
0.969006
0.968912
0.968845
0.968824
0.96887
0.968985
0.969149
0.969328
0.969489
0.96961
0.969675
0.969675
0.96961
0.969489
0.969328
0.969148
0.968984
0.968869
0.968823
0.968844
0.968912
0.969006
0.969102
0.969184
0.969237
0.969263
0.969132
0.9691
0.969038
0.968945
0.968837
0.968734
0.968661
0.968637
0.96868
0.968795
0.968968
0.969165
0.969347
0.969483
0.969556
0.969556
0.969484
0.969347
0.969165
0.968968
0.968795
0.968679
0.968635
0.96866
0.968734
0.968837
0.968946
0.96904
0.969102
0.969134
0.969033
0.968994
0.96892
0.968812
0.968691
0.968579
0.9685
0.968473
0.968514
0.968627
0.9688
0.969004
0.9692
0.969351
0.969432
0.969432
0.969351
0.9692
0.969004
0.9688
0.968626
0.968513
0.968472
0.968499
0.968578
0.968691
0.968813
0.968922
0.968996
0.969035
0.968957
0.968911
0.968825
0.968702
0.968568
0.968448
0.968365
0.968338
0.968378
0.968488
0.968656
0.968859
0.96906
0.969219
0.969306
0.969306
0.969219
0.96906
0.968859
0.968656
0.968487
0.968377
0.968336
0.968364
0.968447
0.968568
0.968703
0.968826
0.968913
0.968958
0.968888
0.968836
0.96874
0.968605
0.96846
0.968333
0.968248
0.968222
0.968263
0.968371
0.968536
0.968734
0.968934
0.969095
0.969185
0.969185
0.969095
0.968933
0.968734
0.968535
0.96837
0.968262
0.96822
0.968247
0.968332
0.96846
0.968605
0.968741
0.968838
0.96889
0.968813
0.968756
0.968651
0.968507
0.968355
0.968224
0.968138
0.968112
0.968155
0.968264
0.968428
0.968624
0.968823
0.968986
0.969078
0.969078
0.968986
0.968823
0.968624
0.968427
0.968263
0.968154
0.968111
0.968137
0.968223
0.968355
0.968507
0.968652
0.968757
0.968814
0.968722
0.968661
0.968551
0.968402
0.968247
0.968114
0.968027
0.968003
0.968046
0.968156
0.968321
0.968519
0.968721
0.968887
0.968982
0.968982
0.968887
0.96872
0.968519
0.96832
0.968155
0.968045
0.968001
0.968026
0.968113
0.968246
0.968402
0.968552
0.968662
0.968723
0.968616
0.968552
0.96844
0.968289
0.968133
0.968001
0.967915
0.96789
0.967934
0.968044
0.968211
0.968412
0.968617
0.968787
0.968884
0.968884
0.968787
0.968617
0.968411
0.96821
0.968043
0.967932
0.967889
0.967914
0.968
0.968133
0.968289
0.96844
0.968553
0.968617
0.968499
0.968435
0.968322
0.968172
0.968018
0.967888
0.967803
0.967778
0.96782
0.96793
0.968098
0.968302
0.96851
0.968682
0.968778
0.968778
0.968681
0.968509
0.968301
0.968096
0.967928
0.967819
0.967777
0.967802
0.967887
0.968018
0.968172
0.968322
0.968435
0.9685
0.96838
0.968315
0.968205
0.968058
0.967908
0.96778
0.967697
0.96767
0.96771
0.967819
0.967988
0.968196
0.968407
0.96858
0.968676
0.968675
0.968579
0.968406
0.968195
0.967987
0.967818
0.967709
0.967669
0.967696
0.96778
0.967907
0.968058
0.968205
0.968315
0.96838
0.968263
0.9682
0.968095
0.967953
0.967807
0.967682
0.967599
0.96757
0.967608
0.967716
0.967888
0.968102
0.968319
0.968496
0.968594
0.968593
0.968496
0.968319
0.968101
0.967887
0.967715
0.967607
0.967569
0.967598
0.967682
0.967807
0.967953
0.968095
0.9682
0.968263
0.968152
0.968093
0.967993
0.967858
0.967717
0.967594
0.96751
0.967478
0.967514
0.967622
0.967798
0.96802
0.968249
0.968437
0.96854
0.96854
0.968436
0.968248
0.968019
0.967797
0.967621
0.967513
0.967478
0.967509
0.967594
0.967717
0.967858
0.967993
0.968093
0.968152
0.968048
0.967993
0.967901
0.967773
0.967637
0.967515
0.967428
0.967393
0.967425
0.967533
0.967713
0.967944
0.968186
0.968389
0.968502
0.968502
0.968389
0.968186
0.967943
0.967712
0.967532
0.967424
0.967392
0.967428
0.967515
0.967637
0.967773
0.967901
0.967993
0.968048
0.967949
0.967899
0.967816
0.967696
0.967564
0.967442
0.967351
0.967311
0.967339
0.967445
0.967626
0.967863
0.968116
0.968332
0.968454
0.968454
0.968332
0.968116
0.967863
0.967626
0.967444
0.967338
0.96731
0.967351
0.967442
0.967564
0.967695
0.967816
0.967899
0.967949
0.967854
0.967809
0.967735
0.967623
0.967496
0.967373
0.967277
0.967231
0.967253
0.967356
0.967535
0.967772
0.96803
0.968251
0.968378
0.968378
0.968251
0.968029
0.967772
0.967535
0.967355
0.967253
0.967231
0.967277
0.967373
0.967496
0.967623
0.967735
0.967809
0.967854
0.967761
0.967722
0.967657
0.967553
0.96743
0.967306
0.967205
0.967152
0.967168
0.967266
0.96744
0.967673
0.967928
0.968149
0.968277
0.968277
0.968149
0.967927
0.967672
0.967439
0.967265
0.967168
0.967152
0.967206
0.967306
0.96743
0.967553
0.967657
0.967722
0.96776
0.967669
0.967636
0.967579
0.967483
0.967366
0.967241
0.967136
0.967075
0.967084
0.967175
0.967344
0.967571
0.96782
0.968039
0.968166
0.968166
0.968038
0.96782
0.96757
0.967343
0.967175
0.967084
0.967075
0.967136
0.967241
0.967366
0.967483
0.967579
0.967636
0.967669
0.967578
0.96755
0.967501
0.967414
0.967302
0.967178
0.967068
0.967
0.967002
0.967086
0.967249
0.967471
0.967716
0.967932
0.968058
0.968058
0.967931
0.967715
0.96747
0.967248
0.967086
0.967001
0.967
0.967068
0.967178
0.967302
0.967414
0.967501
0.96755
0.967577
0.967487
0.967464
0.967422
0.967343
0.967237
0.967114
0.967
0.966925
0.966919
0.966998
0.967157
0.967376
0.967619
0.967833
0.967958
0.967958
0.967832
0.967618
0.967374
0.967156
0.966997
0.966919
0.966925
0.967
0.967114
0.967237
0.967343
0.967422
0.967464
0.967487
0.967399
0.96738
0.967344
0.967271
0.96717
0.967048
0.966932
0.966849
0.966835
0.966908
0.967065
0.967285
0.967528
0.96774
0.967863
0.967863
0.967739
0.967527
0.967283
0.967064
0.966908
0.966835
0.966849
0.966932
0.967049
0.96717
0.967271
0.967344
0.967379
0.967399
0.967314
0.967298
0.967266
0.967199
0.967102
0.966981
0.966861
0.966771
0.966748
0.966816
0.966973
0.967196
0.96744
0.967648
0.967766
0.967766
0.967647
0.967438
0.967194
0.966971
0.966815
0.966748
0.966771
0.966861
0.966981
0.967102
0.967199
0.967266
0.967297
0.967314
0.967234
0.96722
0.967192
0.967128
0.967032
0.96691
0.966787
0.96669
0.966659
0.966721
0.966878
0.967104
0.967351
0.967555
0.967668
0.967667
0.967553
0.967349
0.967103
0.966876
0.96672
0.966659
0.96669
0.966787
0.966911
0.967032
0.967127
0.967191
0.967219
0.967233
0.96716
0.967147
0.967121
0.967058
0.966961
0.966837
0.966709
0.966606
0.966566
0.966622
0.966778
0.967007
0.967256
0.967461
0.967572
0.967571
0.967459
0.967254
0.967006
0.966777
0.966621
0.966566
0.966606
0.966709
0.966837
0.966961
0.967057
0.96712
0.967147
0.967159
0.967093
0.967081
0.967054
0.966989
0.96689
0.966761
0.966628
0.966517
0.966469
0.966518
0.966671
0.966901
0.967155
0.967369
0.967486
0.967485
0.967367
0.967153
0.966899
0.966669
0.966517
0.966469
0.966517
0.966627
0.966761
0.96689
0.966989
0.967053
0.96708
0.967092
0.967032
0.96702
0.966991
0.966923
0.966818
0.966683
0.966542
0.966423
0.966367
0.966407
0.966554
0.966786
0.967051
0.967283
0.967415
0.967414
0.967281
0.967049
0.966784
0.966553
0.966406
0.966366
0.966423
0.966541
0.966683
0.966817
0.966922
0.96699
0.967019
0.967031
0.966976
0.966963
0.96693
0.966856
0.966744
0.966601
0.966451
0.966322
0.966256
0.966287
0.96643
0.966666
0.966949
0.967205
0.967357
0.967357
0.967205
0.966947
0.966664
0.966428
0.966286
0.966255
0.966322
0.96645
0.966601
0.966743
0.966855
0.966929
0.966962
0.966975
0.966921
0.966906
0.966868
0.966788
0.966668
0.966515
0.966354
0.966213
0.966136
0.966159
0.966301
0.966548
0.966853
0.967136
0.967306
0.967306
0.967136
0.966853
0.966547
0.9663
0.966158
0.966135
0.966213
0.966353
0.966514
0.966667
0.966787
0.966867
0.966905
0.96692
0.966865
0.966847
0.966803
0.966716
0.966587
0.966424
0.966251
0.966098
0.966009
0.966028
0.966176
0.966439
0.966766
0.96707
0.967252
0.967252
0.96707
0.966766
0.966439
0.966175
0.966028
0.966008
0.966097
0.96625
0.966423
0.966585
0.966714
0.966802
0.966845
0.966863
0.966803
0.966782
0.966732
0.966638
0.9665
0.966327
0.966142
0.965977
0.96588
0.9659
0.966058
0.96634
0.966685
0.967
0.967188
0.967188
0.967
0.966684
0.966339
0.966058
0.965899
0.965879
0.965976
0.966141
0.966326
0.966499
0.966636
0.966731
0.96678
0.966801
0.966733
0.966709
0.966655
0.966553
0.966408
0.966226
0.96603
0.965855
0.965754
0.965777
0.965949
0.966246
0.966602
0.966923
0.967113
0.967112
0.966923
0.966602
0.966245
0.965948
0.965777
0.965753
0.965854
0.966029
0.966224
0.966406
0.966552
0.966653
0.966707
0.966731
0.966654
0.966627
0.966569
0.966463
0.966311
0.96612
0.965916
0.965735
0.965633
0.965663
0.965845
0.966152
0.966517
0.96684
0.96703
0.967029
0.96684
0.966516
0.966152
0.965845
0.965662
0.965632
0.965734
0.965915
0.966119
0.966309
0.966461
0.966567
0.966625
0.966651
0.966566
0.966539
0.966478
0.966367
0.96621
0.966013
0.965803
0.965619
0.965519
0.965555
0.965744
0.966059
0.966428
0.966755
0.966946
0.966946
0.966755
0.966428
0.966059
0.965744
0.965555
0.965519
0.965618
0.965801
0.966011
0.966208
0.966365
0.966475
0.966536
0.966564
0.966475
0.966446
0.966383
0.966269
0.966107
0.965906
0.965693
0.96551
0.965413
0.965454
0.965648
0.965968
0.966342
0.966675
0.96687
0.96687
0.966675
0.966342
0.965968
0.965648
0.965454
0.965413
0.965509
0.965692
0.965904
0.966105
0.966267
0.966381
0.966443
0.966472
0.966384
0.966355
0.96629
0.966172
0.966006
0.965803
0.96559
0.96541
0.965318
0.965362
0.96556
0.965884
0.966266
0.966606
0.966805
0.966805
0.966606
0.966266
0.965885
0.96556
0.965362
0.965318
0.96541
0.965589
0.965801
0.966004
0.96617
0.966287
0.966352
0.966381
0.966301
0.96627
0.966202
0.966081
0.965912
0.965708
0.965498
0.965322
0.965234
0.965282
0.965484
0.965814
0.966204
0.966551
0.966756
0.966756
0.966552
0.966204
0.965815
0.965484
0.965283
0.965234
0.965322
0.965497
0.965706
0.96591
0.966079
0.966199
0.966267
0.966298
0.966231
0.966197
0.966125
0.965999
0.965828
0.965626
0.96542
0.965249
0.965165
0.965217
0.965423
0.96576
0.966158
0.966513
0.966723
0.966723
0.966514
0.966158
0.965761
0.965424
0.965218
0.965166
0.965249
0.96542
0.965625
0.965827
0.965997
0.966123
0.966195
0.966228
0.966177
0.96614
0.966062
0.965932
0.96576
0.965559
0.965358
0.965192
0.965112
0.965167
0.965378
0.965722
0.966128
0.966491
0.966704
0.966704
0.966491
0.966129
0.965723
0.965379
0.965168
0.965112
0.965192
0.965358
0.965559
0.965759
0.96593
0.96606
0.966138
0.966174
0.966138
0.966098
0.966015
0.965881
0.965709
0.965511
0.965312
0.965148
0.965071
0.965131
0.965348
0.9657
0.966114
0.966482
0.966698
0.966698
0.966482
0.966114
0.965701
0.965349
0.965132
0.965073
0.965149
0.965313
0.965511
0.965708
0.96588
0.966014
0.966096
0.966136
0.966114
0.966071
0.965984
0.965848
0.965676
0.965478
0.96528
0.965117
0.965042
0.965106
0.96533
0.965689
0.96611
0.966483
0.966701
0.966702
0.966484
0.966111
0.965691
0.965331
0.965107
0.965044
0.965118
0.965281
0.965479
0.965676
0.965848
0.965983
0.966069
0.966112
0.966099
0.966055
0.965968
0.965831
0.965658
0.965459
0.965258
0.965094
0.965021
0.965091
0.965322
0.965689
0.966116
0.966492
0.966711
0.966711
0.966492
0.966117
0.965691
0.965324
0.965092
0.965023
0.965096
0.96526
0.96546
0.965659
0.965831
0.965967
0.966054
0.966098
0.966093
0.966049
0.965963
0.965827
0.965652
0.965449
0.965244
0.965078
0.965008
0.965084
0.965323
0.965696
0.966127
0.966504
0.966724
0.966724
0.966505
0.966128
0.965698
0.965324
0.965086
0.96501
0.96508
0.965246
0.965451
0.965653
0.965827
0.965963
0.966049
0.966093
0.966096
0.966052
0.965968
0.965831
0.965653
0.965445
0.965235
0.965069
0.965003
0.965085
0.96533
0.965708
0.96614
0.966518
0.966738
0.966738
0.966519
0.966142
0.96571
0.965332
0.965087
0.965005
0.965071
0.965237
0.965447
0.965654
0.965832
0.965968
0.966052
0.966096
0.966109
0.966064
0.96598
0.96584
0.965658
0.965444
0.965231
0.965067
0.965006
0.965093
0.965343
0.965722
0.966154
0.966531
0.966749
0.966749
0.966531
0.966156
0.965724
0.965345
0.965096
0.965009
0.965069
0.965234
0.965446
0.965659
0.965841
0.96598
0.966065
0.966109
0.966133
0.966086
0.965998
0.965854
0.965665
0.965447
0.965234
0.965074
0.965019
0.96511
0.965361
0.965738
0.966166
0.966538
0.966754
0.966754
0.966539
0.966167
0.96574
0.965363
0.965113
0.965021
0.965076
0.965237
0.965449
0.965667
0.965855
0.965999
0.966086
0.966133
0.966165
0.966115
0.966022
0.965872
0.965677
0.965457
0.965247
0.965092
0.965043
0.965136
0.965384
0.965755
0.966174
0.966538
0.966749
0.966749
0.966539
0.966175
0.965756
0.965386
0.965139
0.965046
0.965095
0.96525
0.96546
0.965679
0.965873
0.966023
0.966116
0.966165
0.966199
0.966147
0.96605
0.965895
0.965697
0.965478
0.965273
0.965125
0.96508
0.965174
0.965415
0.965774
0.966179
0.96653
0.966734
0.966734
0.966531
0.96618
0.965776
0.965417
0.965176
0.965083
0.965128
0.965276
0.965481
0.9657
0.965896
0.966051
0.966148
0.9662
0.96623
0.966177
0.966079
0.965922
0.965725
0.96551
0.965312
0.965172
0.965132
0.965224
0.965455
0.965798
0.966183
0.966517
0.966709
0.966709
0.966517
0.966184
0.965799
0.965457
0.965226
0.965135
0.965175
0.965316
0.965513
0.965728
0.965924
0.96608
0.966178
0.966231
0.966255
0.966203
0.966105
0.96595
0.965759
0.965551
0.965362
0.965231
0.965195
0.965285
0.965504
0.965827
0.966188
0.966499
0.966678
0.966679
0.966499
0.966189
0.965828
0.965506
0.965287
0.965198
0.965234
0.965366
0.965554
0.965761
0.965953
0.966107
0.966204
0.966256
0.966275
0.966223
0.966128
0.965977
0.965792
0.965593
0.965415
0.965294
0.965265
0.965352
0.965559
0.965859
0.966192
0.966479
0.966643
0.966643
0.966479
0.966193
0.96586
0.96556
0.965354
0.965268
0.965297
0.965419
0.965597
0.965795
0.965979
0.96613
0.966224
0.966276
0.966293
0.966241
0.966147
0.966
0.965821
0.965631
0.965464
0.965354
0.965331
0.965416
0.96561
0.965887
0.966192
0.966453
0.966603
0.966603
0.966453
0.966193
0.965888
0.965612
0.965418
0.965334
0.965357
0.965467
0.965634
0.965823
0.966002
0.966149
0.966242
0.966294
0.966312
0.96626
0.966165
0.966018
0.965841
0.965658
0.965501
0.965402
0.965386
0.965469
0.96565
0.965904
0.966182
0.966418
0.966554
0.966553
0.966418
0.966182
0.965905
0.965651
0.965471
0.965388
0.965405
0.965505
0.965661
0.965844
0.96602
0.966166
0.966261
0.966313
0.966334
0.966279
0.966181
0.966031
0.965854
0.965674
0.965525
0.965434
0.965424
0.965504
0.965672
0.965903
0.966155
0.966369
0.966492
0.966492
0.966369
0.966155
0.965903
0.965672
0.965506
0.965426
0.965437
0.965528
0.965677
0.965857
0.966033
0.966182
0.96628
0.966335
0.966355
0.966297
0.966194
0.966039
0.965859
0.96568
0.965535
0.965451
0.965444
0.965519
0.965671
0.965881
0.96611
0.966304
0.966417
0.966416
0.966304
0.966109
0.965881
0.965671
0.96552
0.965445
0.965453
0.965538
0.965683
0.965862
0.966041
0.966196
0.966298
0.966356
0.966372
0.966311
0.966203
0.966041
0.965856
0.965676
0.965535
0.965454
0.965446
0.965514
0.965651
0.96584
0.966047
0.966225
0.966328
0.966328
0.966224
0.966046
0.965839
0.96565
0.965514
0.965448
0.965456
0.965537
0.965679
0.965859
0.966044
0.966205
0.966312
0.966373
0.966382
0.966317
0.966204
0.966036
0.965847
0.965666
0.965526
0.965446
0.965435
0.965492
0.965612
0.965782
0.96597
0.966134
0.96623
0.966229
0.966133
0.965969
0.96578
0.965611
0.965492
0.965436
0.965448
0.965528
0.965669
0.96585
0.966039
0.966206
0.966318
0.966383
0.966382
0.966313
0.966196
0.966024
0.965832
0.965651
0.965512
0.965431
0.965414
0.965458
0.965561
0.965711
0.965882
0.966034
0.966123
0.966123
0.966033
0.965881
0.965709
0.965559
0.965457
0.965414
0.965433
0.965514
0.965653
0.965835
0.966027
0.966198
0.966315
0.966383
0.966373
0.966301
0.966181
0.966006
0.965813
0.965633
0.965494
0.965411
0.965384
0.965414
0.965499
0.965631
0.965786
0.965925
0.966009
0.966008
0.965924
0.965784
0.965629
0.965497
0.965413
0.965385
0.965412
0.965496
0.965635
0.965816
0.966008
0.966183
0.966303
0.966374
0.966355
0.966281
0.966159
0.965983
0.965792
0.965613
0.965475
0.965386
0.965349
0.965363
0.96543
0.965543
0.965681
0.965807
0.965883
0.965882
0.965806
0.965679
0.965541
0.965428
0.965362
0.965349
0.965387
0.965477
0.965616
0.965794
0.965985
0.966161
0.966283
0.966357
0.966332
0.966256
0.966132
0.965958
0.965769
0.965594
0.965455
0.965359
0.96531
0.965308
0.965356
0.965449
0.965567
0.965677
0.965743
0.965743
0.965675
0.965565
0.965446
0.965354
0.965306
0.96531
0.96536
0.965456
0.965596
0.965772
0.96596
0.966135
0.966258
0.966334
0.966305
0.966227
0.966105
0.965932
0.965748
0.965574
0.965432
0.965329
0.965267
0.965249
0.965278
0.965349
0.965444
0.965533
0.965587
0.965587
0.965531
0.965441
0.965346
0.965276
0.965247
0.965266
0.965329
0.965434
0.965576
0.96575
0.965935
0.966107
0.966229
0.966307
0.966274
0.966197
0.966076
0.965907
0.965725
0.965551
0.965406
0.965294
0.96522
0.965187
0.965196
0.965243
0.965311
0.965376
0.965415
0.965415
0.965374
0.965309
0.965241
0.965194
0.965184
0.965219
0.965294
0.965407
0.965554
0.965728
0.96591
0.966079
0.966199
0.966277
0.966243
0.966166
0.966049
0.965882
0.965701
0.965525
0.965373
0.965252
0.965166
0.965119
0.965109
0.96513
0.965169
0.965207
0.965231
0.965231
0.965206
0.965166
0.965128
0.965106
0.965116
0.965165
0.965252
0.965374
0.965527
0.965704
0.965885
0.966052
0.966169
0.966245
0.966211
0.966136
0.966022
0.965856
0.965675
0.965493
0.965333
0.965202
0.965106
0.965044
0.965014
0.965009
0.965018
0.965031
0.965039
0.965039
0.965029
0.965015
0.965006
0.965011
0.965041
0.965104
0.965202
0.965334
0.965495
0.965677
0.965859
0.966025
0.966139
0.966215
0.966182
0.966108
0.965996
0.96583
0.965645
0.965457
0.965287
0.965146
0.965038
0.964961
0.96491
0.964878
0.964859
0.96485
0.964846
0.964846
0.964848
0.964857
0.964875
0.964906
0.964958
0.965036
0.965145
0.965288
0.965458
0.965648
0.965833
0.965999
0.966112
0.966186
0.966154
0.966082
0.965971
0.965804
0.965614
0.965417
0.965238
0.965086
0.964964
0.964869
0.964795
0.964738
0.964695
0.964669
0.964657
0.964656
0.964667
0.964693
0.964735
0.964792
0.964866
0.964962
0.965084
0.965238
0.965419
0.965617
0.965807
0.965975
0.966085
0.966158
0.966127
0.966055
0.965947
0.965778
0.965584
0.96538
0.96519
0.965025
0.964888
0.964772
0.964673
0.964591
0.96453
0.964492
0.964475
0.964474
0.964491
0.964528
0.964588
0.96467
0.964768
0.964885
0.965023
0.96519
0.965381
0.965587
0.965782
0.965951
0.96606
0.966131
0.966097
0.966028
0.965923
0.965755
0.965559
0.965348
0.965149
0.964969
0.964811
0.96467
0.964545
0.964441
0.964366
0.964322
0.964302
0.964302
0.96432
0.964364
0.964439
0.964542
0.964666
0.964808
0.964967
0.965148
0.965348
0.965561
0.965759
0.965927
0.966033
0.966102
0.966064
0.965998
0.9659
0.965735
0.96554
0.965325
0.965117
0.964919
0.964737
0.964566
0.964414
0.964291
0.964205
0.964157
0.964137
0.964137
0.964156
0.964204
0.964289
0.964411
0.964563
0.964733
0.964917
0.965115
0.965326
0.965542
0.965739
0.965904
0.966004
0.96607
0.966029
0.965967
0.965877
0.96572
0.965531
0.965315
0.965097
0.964879
0.964666
0.964463
0.964284
0.964142
0.964047
0.963996
0.963976
0.963976
0.963995
0.964046
0.96414
0.964281
0.96446
0.964663
0.964876
0.965095
0.965315
0.965532
0.965724
0.965881
0.965972
0.966035
0.965995
0.965937
0.965857
0.965712
0.965532
0.965318
0.965089
0.964847
0.9646
0.964362
0.964154
0.963994
0.963891
0.963836
0.963815
0.963814
0.963836
0.96389
0.963992
0.964151
0.964359
0.964597
0.964843
0.965087
0.965318
0.965534
0.965715
0.965862
0.965943
0.966001
0.965969
0.965915
0.965846
0.965714
0.965547
0.965335
0.965092
0.964821
0.964537
0.964263
0.964026
0.963849
0.963735
0.963674
0.96365
0.96365
0.963674
0.963734
0.963847
0.964023
0.964259
0.964534
0.964817
0.965089
0.965333
0.965547
0.965717
0.965851
0.96592
0.965976
0.965958
0.965906
0.965849
0.96573
0.965574
0.965362
0.965104
0.964799
0.964476
0.964164
0.9639
0.963704
0.963578
0.963509
0.96348
0.96348
0.963509
0.963577
0.963702
0.963897
0.964161
0.964472
0.964795
0.9651
0.965361
0.965575
0.965732
0.965853
0.965912
0.965965
0.965967
0.965917
0.965871
0.965764
0.965617
0.9654
0.965119
0.964778
0.964413
0.964065
0.963773
0.963558
0.963419
0.963341
0.963307
0.963307
0.963341
0.963419
0.963557
0.963771
0.964062
0.964409
0.964774
0.965116
0.965398
0.965617
0.965765
0.965876
0.965924
0.965974
0.965998
0.965951
0.965917
0.965819
0.965676
0.965447
0.965138
0.964756
0.964349
0.963964
0.963645
0.963412
0.963259
0.963171
0.963132
0.963132
0.963171
0.963258
0.96341
0.963643
0.963961
0.964345
0.964752
0.965134
0.965444
0.965675
0.96582
0.965921
0.965958
0.966006
0.966053
0.96601
0.96599
0.965897
0.96575
0.965501
0.965157
0.964733
0.964282
0.963862
0.963517
0.963263
0.963097
0.963001
0.962958
0.962958
0.963
0.963096
0.963262
0.963514
0.963859
0.964279
0.964728
0.965152
0.965497
0.965749
0.965898
0.965993
0.966016
0.96606
0.966136
0.966097
0.96609
0.966
0.965841
0.965563
0.965179
0.96471
0.964219
0.963763
0.963389
0.963116
0.962937
0.962834
0.962788
0.962788
0.962834
0.962936
0.963115
0.963387
0.96376
0.964215
0.964706
0.965174
0.965559
0.965839
0.966001
0.966093
0.966102
0.966143
0.966255
0.966216
0.96622
0.966127
0.96595
0.965636
0.965208
0.964695
0.964163
0.963673
0.96327
0.962976
0.962784
0.962675
0.962628
0.962627
0.962675
0.962783
0.962975
0.963269
0.96367
0.96416
0.964691
0.965204
0.965632
0.965948
0.966127
0.966223
0.966221
0.966262
0.966422
0.966376
0.966381
0.966278
0.966078
0.965726
0.965254
0.964697
0.964126
0.9636
0.963168
0.96285
0.962645
0.96253
0.962481
0.962481
0.962529
0.962644
0.962849
0.963166
0.963598
0.964122
0.964693
0.965249
0.965722
0.966075
0.966278
0.966383
0.96638
0.966428
0.966645
0.966582
0.966576
0.966454
0.966226
0.965837
0.965324
0.964726
0.964116
0.963555
0.963091
0.962749
0.962528
0.962405
0.962353
0.962353
0.962404
0.962527
0.962748
0.96309
0.963553
0.964113
0.964722
0.965319
0.965833
0.966223
0.966453
0.966578
0.966586
0.96665
0.966928
0.966839
0.966809
0.966656
0.966397
0.965974
0.965425
0.96479
0.964142
0.963544
0.963048
0.962679
0.962439
0.962305
0.962248
0.962248
0.962305
0.962438
0.962678
0.963047
0.963542
0.964139
0.964786
0.965421
0.96597
0.966395
0.966655
0.96681
0.966842
0.966931
0.967266
0.967146
0.967082
0.966889
0.966596
0.966141
0.965561
0.964892
0.964208
0.963573
0.963042
0.962644
0.962381
0.962232
0.962168
0.962168
0.962232
0.96238
0.962643
0.963041
0.963571
0.964205
0.964888
0.965557
0.966137
0.966594
0.966888
0.967083
0.967149
0.967269
0.967649
0.967498
0.967398
0.96716
0.966829
0.966341
0.965731
0.965031
0.964312
0.963639
0.963071
0.96264
0.962351
0.962184
0.96211
0.96211
0.962184
0.962351
0.96264
0.96307
0.963637
0.964309
0.965028
0.965728
0.966337
0.966827
0.967159
0.967398
0.9675
0.967651
0.968065
0.967887
0.967757
0.967475
0.967104
0.966576
0.965934
0.965202
0.964447
0.963736
0.963131
0.962665
0.962345
0.962155
0.962069
0.962069
0.962155
0.962345
0.962664
0.96313
0.963735
0.964446
0.965199
0.965931
0.966574
0.967101
0.967474
0.967756
0.967888
0.968066
0.968504
0.968304
0.968154
0.967835
0.967422
0.96685
0.966167
0.965398
0.964607
0.963858
0.963213
0.96271
0.962357
0.96214
0.962039
0.962039
0.96214
0.962357
0.962709
0.963213
0.963857
0.964606
0.965396
0.966165
0.966848
0.96742
0.967833
0.968153
0.968304
0.968504
0.968958
0.968741
0.968581
0.968233
0.967782
0.96716
0.966429
0.965615
0.964783
0.963995
0.963312
0.962769
0.96238
0.962135
0.962018
0.962018
0.962135
0.962381
0.962769
0.963311
0.963995
0.964783
0.965614
0.966427
0.967158
0.967779
0.968231
0.968579
0.96874
0.968958
0.969424
0.969188
0.969024
0.968655
0.968169
0.967498
0.966713
0.965847
0.964971
0.964142
0.96342
0.96284
0.962415
0.96214
0.962006
0.962006
0.96214
0.962415
0.96284
0.96342
0.964142
0.96497
0.965846
0.966711
0.967495
0.968166
0.968652
0.969023
0.969187
0.969423
0.969896
0.969638
0.969471
0.969081
0.968565
0.967847
0.967009
0.966089
0.965164
0.964293
0.963534
0.962919
0.962459
0.962156
0.962006
0.962006
0.962156
0.96246
0.962919
0.963535
0.964294
0.965164
0.966088
0.967008
0.967845
0.968562
0.969079
0.969469
0.969637
0.969895
0.970372
0.970086
0.969908
0.969494
0.968949
0.96819
0.967303
0.96633
0.965357
0.964445
0.96365
0.963001
0.96251
0.962182
0.962017
0.962017
0.962182
0.962511
0.963001
0.96365
0.964445
0.965357
0.96633
0.967302
0.968188
0.968947
0.969492
0.969906
0.970084
0.97037
0.970849
0.970527
0.97033
0.969882
0.969306
0.968507
0.967578
0.96656
0.965543
0.964591
0.963761
0.963081
0.962562
0.962211
0.962034
0.962034
0.962212
0.962563
0.963081
0.963762
0.964592
0.965543
0.96656
0.967577
0.968506
0.969304
0.969881
0.970328
0.970525
0.970847
0.971324
0.97096
0.970734
0.970243
0.969628
0.968789
0.967822
0.966768
0.965715
0.964727
0.963863
0.963151
0.962605
0.962235
0.962048
0.962048
0.962235
0.962606
0.963151
0.963863
0.964727
0.965715
0.966767
0.967822
0.968788
0.969627
0.970241
0.970732
0.970958
0.971321
0.971794
0.971383
0.971122
0.970577
0.969917
0.969034
0.968031
0.966945
0.965863
0.964844
0.963947
0.963202
0.962629