# vtk DataFile Version 3.0
Grid data
ASCII
DATASET STRUCTURED_POINTS
DIMENSIONS 30 300 1
ORIGIN 0 0 0
SPACING 0.00833333 0.00333333 1
POINT_DATA 9000
SCALARS rho double
LOOKUP_TABLE default
0.980796
0.980792
0.980784
0.980779
0.980782
0.980794
0.980806
0.980808
0.980801
0.980791
0.980783
0.980778
0.980774
0.98077
0.980767
0.980767
0.98077
0.980774
0.980778
0.980783
0.98079
0.9808
0.980807
0.980805
0.980794
0.980782
0.980779
0.980785
0.980793
0.980799
0.979856
0.979852
0.97985
0.979856
0.979883
0.979928
0.979974
0.980003
0.980015
0.980021
0.980029
0.98004
0.98005
0.980056
0.980059
0.980059
0.980056
0.98005
0.98004
0.980028
0.98002
0.980013
0.980001
0.979972
0.979928
0.979883
0.979857
0.979852
0.979857
0.979862
0.980071
0.980068
0.980069
0.980083
0.980117
0.980167
0.980215
0.980248
0.980266
0.980282
0.980302
0.980325
0.980346
0.980359
0.980365
0.980365
0.980359
0.980346
0.980325
0.980301
0.980281
0.980264
0.980245
0.980212
0.980165
0.980117
0.980085
0.980074
0.980074
0.980078
0.980834
0.980828
0.980827
0.980834
0.980854
0.980882
0.980906
0.98092
0.980927
0.980938
0.980956
0.980978
0.980998
0.981011
0.981017
0.981017
0.981012
0.980998
0.980978
0.980955
0.980936
0.980924
0.980915
0.980901
0.980878
0.980854
0.980837
0.980833
0.980837
0.980844
0.981786
0.981777
0.98177
0.981766
0.981767
0.981769
0.981769
0.981767
0.981767
0.981774
0.981788
0.981805
0.98182
0.98183
0.981834
0.981834
0.98183
0.981821
0.981805
0.981787
0.981771
0.981763
0.981761
0.981763
0.981765
0.981766
0.981769
0.981777
0.981787
0.981797
0.982612
0.982597
0.98258
0.982559
0.982541
0.982523
0.98251
0.982502
0.982502
0.982509
0.982518
0.982526
0.982531
0.982532
0.982531
0.982531
0.982532
0.982531
0.982526
0.982516
0.982505
0.982497
0.982496
0.982503
0.982519
0.982539
0.982562
0.982587
0.982607
0.982623
0.98316
0.98314
0.983111
0.983074
0.983042
0.983018
0.983007
0.983009
0.983019
0.983029
0.983035
0.983033
0.983026
0.983016
0.983009
0.983009
0.983016
0.983025
0.983032
0.983033
0.983026
0.983014
0.983003
0.983001
0.983014
0.983041
0.983077
0.983117
0.983148
0.983169
0.983384
0.983359
0.983322
0.983275
0.983237
0.983217
0.983217
0.983233
0.983254
0.983268
0.983268
0.983257
0.983237
0.983218
0.983205
0.983205
0.983217
0.983237
0.983256
0.983267
0.983265
0.98325
0.983228
0.983213
0.983213
0.983236
0.983277
0.983326
0.983365
0.98339
0.983361
0.983336
0.983297
0.98325
0.983216
0.983203
0.983215
0.983243
0.983271
0.983285
0.983281
0.983261
0.983234
0.983207
0.983191
0.983191
0.983207
0.983233
0.98326
0.98328
0.983283
0.983268
0.983239
0.983212
0.983201
0.983215
0.983252
0.9833
0.98334
0.983365
0.9832
0.983177
0.983143
0.983104
0.983078
0.983075
0.983097
0.98313
0.98316
0.983173
0.983163
0.983137
0.983104
0.983074
0.983056
0.983056
0.983073
0.983103
0.983136
0.983162
0.98317
0.983158
0.983128
0.983094
0.983074
0.983078
0.983105
0.983145
0.983179
0.983203
0.982999
0.98298
0.982955
0.982927
0.982913
0.98292
0.982948
0.982984
0.983013
0.983022
0.983008
0.982978
0.98294
0.982907
0.982888
0.982888
0.982907
0.98294
0.982976
0.983007
0.98302
0.983011
0.982982
0.982946
0.982919
0.982913
0.982928
0.982956
0.982982
0.983001
0.982816
0.982802
0.982786
0.98277
0.982767
0.982783
0.982815
0.982852
0.982879
0.982884
0.982865
0.98283
0.982789
0.982753
0.982732
0.982731
0.982752
0.982788
0.982829
0.982864
0.982882
0.982877
0.98285
0.982814
0.982782
0.982767
0.98277
0.982788
0.982804
0.982818
0.982676
0.982666
0.982658
0.982651
0.982657
0.982679
0.982714
0.982751
0.982775
0.982776
0.982753
0.982713
0.982666
0.982626
0.982602
0.982602
0.982625
0.982666
0.982712
0.982752
0.982775
0.982773
0.982749
0.982712
0.982678
0.982657
0.982651
0.982659
0.982667
0.982678
0.982572
0.982565
0.982563
0.982562
0.982574
0.9826
0.982637
0.982673
0.982695
0.982692
0.982664
0.982617
0.982564
0.982518
0.982491
0.982491
0.982517
0.982563
0.982616
0.982662
0.98269
0.982693
0.982671
0.982635
0.982599
0.982574
0.982563
0.982564
0.982566
0.982573
0.982484
0.98248
0.982482
0.982486
0.982502
0.98253
0.982568
0.982604
0.982624
0.982616
0.982582
0.982529
0.982469
0.982418
0.982388
0.982388
0.982417
0.982469
0.982528
0.982581
0.982615
0.982622
0.982603
0.982567
0.982529
0.982502
0.982486
0.982483
0.982481
0.982486
0.982394
0.982391
0.982396
0.982404
0.982423
0.982454
0.982493
0.982528
0.982545
0.982534
0.982494
0.982435
0.982369
0.982313
0.982281
0.982281
0.982313
0.982368
0.982434
0.982493
0.982532
0.982544
0.982527
0.982492
0.982453
0.982422
0.982404
0.982397
0.982392
0.982395
0.982286
0.982285
0.982292
0.982302
0.982325
0.982359
0.982401
0.982436
0.98245
0.982434
0.982389
0.982325
0.982254
0.982196
0.982162
0.982162
0.982195
0.982254
0.982324
0.982388
0.982433
0.982448
0.982434
0.982399
0.982358
0.982325
0.982302
0.982292
0.982285
0.982287
0.982156
0.982156
0.982165
0.982179
0.982205
0.982244
0.982288
0.982322
0.982333
0.982314
0.982264
0.982194
0.982119
0.982057
0.982022
0.982022
0.982056
0.982118
0.982194
0.982264
0.982313
0.982332
0.982321
0.982286
0.982243
0.982205
0.982178
0.982165
0.982156
0.982157
0.982006
0.982007
0.982018
0.982035
0.982066
0.982109
0.982156
0.982191
0.9822
0.982176
0.982119
0.98204
0.981957
0.98189
0.981854
0.981854
0.981889
0.981956
0.982039
0.982119
0.982175
0.982199
0.98219
0.982155
0.982108
0.982066
0.982034
0.982018
0.982007
0.982006
0.981841
0.981842
0.981855
0.981876
0.981913
0.981961
0.982011
0.982046
0.982053
0.982022
0.981954
0.981861
0.981768
0.981697
0.98166
0.98166
0.981696
0.981767
0.98186
0.981953
0.982021
0.982052
0.982046
0.98201
0.98196
0.981912
0.981876
0.981855
0.981842
0.981841
0.981665
0.981668
0.981684
0.981709
0.981751
0.981805
0.981858
0.981893
0.981895
0.981853
0.981771
0.981666
0.981567
0.981496
0.981461
0.981461
0.981496
0.981566
0.981665
0.98177
0.981853
0.981894
0.981892
0.981857
0.981804
0.98175
0.981708
0.981683
0.981668
0.981665
0.981484
0.981488
0.981507
0.981536
0.981584
0.981642
0.981698
0.981732
0.981727
0.981675
0.981582
0.981473
0.981377
0.981312
0.981281
0.981281
0.981312
0.981377
0.981473
0.981582
0.981675
0.981727
0.981732
0.981697
0.981641
0.981583
0.981536
0.981506
0.981488
0.981484
0.981298
0.981304
0.981326
0.98136
0.981412
0.981474
0.981531
0.981563
0.981552
0.981493
0.981401
0.9813
0.981214
0.981156
0.981128
0.981128
0.981157
0.981215
0.9813
0.981401
0.981493
0.981552
0.981562
0.981531
0.981473
0.981412
0.981359
0.981325
0.981303
0.981298
0.981106
0.981114
0.98114
0.981179
0.981235
0.981299
0.981356
0.981384
0.98137
0.981314
0.981231
0.981144
0.981067
0.98101
0.98098
0.98098
0.981011
0.981068
0.981145
0.981232
0.981314
0.98137
0.981384
0.981355
0.981299
0.981235
0.981178
0.981139
0.981113
0.981105
0.980905
0.980916
0.980946
0.98099
0.98105
0.981114
0.98117
0.981196
0.981184
0.981135
0.981064
0.980984
0.980904
0.980838
0.9808
0.980801
0.980839
0.980905
0.980985
0.981065
0.981136
0.981184
0.981196
0.98117
0.981114
0.981049
0.980989
0.980945
0.980915
0.980905
0.980694
0.980707
0.980742
0.980791
0.980853
0.980918
0.980971
0.980997
0.980988
0.980945
0.980877
0.980789
0.980695
0.980613
0.980565
0.980565
0.980614
0.980696
0.98079
0.980878
0.980946
0.980988
0.980997
0.980971
0.980917
0.980853
0.98079
0.980742
0.980707
0.980693
0.980471
0.980487
0.980527
0.980579
0.980644
0.980707
0.980758
0.980783
0.980774
0.980729
0.980651
0.980546
0.980431
0.980332
0.980275
0.980275
0.980332
0.980431
0.980546
0.980652
0.98073
0.980774
0.980783
0.980758
0.980707
0.980643
0.980579
0.980526
0.980487
0.98047
0.980235
0.980255
0.980299
0.980356
0.980421
0.980482
0.980529
0.980549
0.980535
0.98048
0.980384
0.980258
0.980125
0.980014
0.979952
0.979952
0.980014
0.980125
0.980258
0.980384
0.98048
0.980535
0.98055
0.980529
0.980482
0.980421
0.980355
0.980299
0.980255
0.980235
0.97999
0.980013
0.980061
0.980121
0.980185
0.980243
0.980284
0.980296
0.980271
0.9802
0.980087
0.979944
0.979799
0.979682
0.979617
0.979617
0.979682
0.979799
0.979945
0.980087
0.980201
0.980271
0.980297
0.980284
0.980243
0.980185
0.98012
0.980061
0.980012
0.979989
0.979737
0.979763
0.979815
0.979876
0.97994
0.979992
0.980025
0.980027
0.979988
0.979902
0.979775
0.979622
0.97947
0.979349
0.979283
0.979283
0.979349
0.97947
0.979622
0.979775
0.979903
0.979988
0.980027
0.980026
0.979993
0.97994
0.979876
0.979815
0.979763
0.979737
0.97948
0.979508
0.979563
0.979625
0.979686
0.979733
0.979757
0.979746
0.979694
0.979596
0.979459
0.979299
0.979144
0.979021
0.978953
0.978954
0.979021
0.979145
0.9793
0.979459
0.979597
0.979694
0.979747
0.979757
0.979733
0.979687
0.979625
0.979563
0.979508
0.97948
0.979222
0.979251
0.979307
0.979368
0.979426
0.979466
0.979481
0.97946
0.979396
0.979288
0.979144
0.97898
0.978822
0.978697
0.978629
0.978629
0.978698
0.978822
0.978981
0.979145
0.979289
0.979396
0.97946
0.979481
0.979467
0.979426
0.979369
0.979307
0.979252
0.979223
0.978966
0.978994
0.979048
0.979106
0.97916
0.979193
0.9792
0.979169
0.979096
0.97898
0.97883
0.978663
0.978502
0.978377
0.978309
0.978309
0.978377
0.978503
0.978663
0.978831
0.978981
0.979097
0.97917
0.9792
0.979194
0.97916
0.979107
0.979049
0.978995
0.978967
0.978711
0.978737
0.978787
0.978839
0.978887
0.978914
0.978913
0.978874
0.978793
0.978671
0.978516
0.978346
0.978184
0.978059
0.977991
0.977991
0.978059
0.978185
0.978347
0.978517
0.978672
0.978794
0.978875
0.978913
0.978914
0.978887
0.97884
0.978787
0.978738
0.978712
0.978455
0.978477
0.97852
0.978566
0.978606
0.978626
0.978618
0.978573
0.978485
0.978358
0.978199
0.978027
0.977865
0.97774
0.977672
0.977672
0.97774
0.977866
0.978028
0.9782
0.978358
0.978486
0.978573
0.978619
0.978627
0.978606
0.978566
0.978521
0.978478
0.978456
0.978194
0.978212
0.978247
0.978284
0.978316
0.978329
0.978314
0.978262
0.978169
0.978038
0.977877
0.977704
0.977541
0.977415
0.977346
0.977346
0.977415
0.977542
0.977704
0.977878
0.978039
0.97817
0.978263
0.978315
0.978329
0.978316
0.978285
0.978248
0.978213
0.978195
0.977923
0.977936
0.977963
0.977991
0.978014
0.97802
0.977999
0.977942
0.977845
0.97771
0.977547
0.977372
0.977207
0.977079
0.977009
0.977009
0.977079
0.977208
0.977373
0.977548
0.977711
0.977845
0.977942
0.977999
0.97802
0.978015
0.977992
0.977964
0.977937
0.977924
0.97764
0.977649
0.977668
0.977686
0.9777
0.977699
0.977672
0.977611
0.977512
0.977375
0.977209
0.977031
0.976861
0.976729
0.976656
0.976656
0.976729
0.976862
0.977031
0.97721
0.977376
0.977512
0.977612
0.977673
0.977699
0.977701
0.977687
0.977669
0.97765
0.977641
0.977347
0.977352
0.977362
0.977371
0.977376
0.977367
0.977336
0.977273
0.977172
0.977033
0.976864
0.97668
0.976504
0.976365
0.976288
0.976288
0.976365
0.976504
0.97668
0.976865
0.977034
0.977172
0.977273
0.977337
0.977368
0.977376
0.977372
0.977363
0.977353
0.977348
0.977048
0.977049
0.977052
0.977052
0.977047
0.977031
0.976996
0.976931
0.976829
0.976689
0.976515
0.976323
0.976138
0.975991
0.975909
0.975909
0.975991
0.976138
0.976323
0.976515
0.976689
0.97683
0.976931
0.976996
0.977032
0.977047
0.977052
0.977053
0.97705
0.97705
0.976754
0.976752
0.976748
0.976738
0.976724
0.9767
0.97666
0.976593
0.976491
0.976348
0.976168
0.975967
0.975771
0.975614
0.975527
0.975527
0.975614
0.975771
0.975967
0.976168
0.976348
0.976491
0.976594
0.97666
0.976701
0.976724
0.976739
0.976749
0.976753
0.976755
0.976473
0.976469
0.976461
0.976443
0.976419
0.976387
0.97634
0.97627
0.976165
0.976019
0.975832
0.975621
0.975413
0.975246
0.975153
0.975153
0.975246
0.975413
0.975621
0.975833
0.976019
0.976166
0.976271
0.976341
0.976387
0.97642
0.976444
0.976461
0.97647
0.976474
0.976214
0.976209
0.976198
0.976175
0.976144
0.976103
0.976049
0.975974
0.975865
0.975713
0.975519
0.975296
0.975076
0.974898
0.974798
0.974798
0.974898
0.975076
0.975296
0.975519
0.975714
0.975866
0.975975
0.97605
0.976104
0.976145
0.976176
0.976199
0.97621
0.976215
0.975983
0.975978
0.975965
0.975939
0.975902
0.975855
0.975794
0.975713
0.975598
0.97544
0.975236
0.975002
0.97477
0.974581
0.974474
0.974474
0.974581
0.97477
0.975003
0.975237
0.97544
0.975599
0.975713
0.975795
0.975856
0.975903
0.97594
0.975966
0.975979
0.975984
0.975778
0.975774
0.975761
0.975734
0.975694
0.975641
0.975576
0.975489
0.975368
0.975202
0.974989
0.974743
0.974499
0.974299
0.974187
0.974187
0.974299
0.974499
0.974744
0.974989
0.975203
0.975369
0.975489
0.975577
0.975642
0.975695
0.975735
0.975762
0.975774
0.975779
0.975598
0.975594
0.975582
0.975554
0.975512
0.975456
0.975387
0.975296
0.975171
0.974997
0.974774
0.974517
0.974261
0.974052
0.973935
0.973935
0.974052
0.974261
0.974517
0.974775
0.974998
0.975171
0.975297
0.975389
0.975458
0.975513
0.975555
0.975582
0.975594
0.975599
0.975437
0.975432
0.97542
0.975391
0.975348
0.975291
0.97522
0.975126
0.974996
0.974816
0.974583
0.974315
0.974048
0.973831
0.97371
0.97371
0.973832
0.974049
0.974315
0.974584
0.974817
0.974997
0.975127
0.975221
0.975293
0.975349
0.975392
0.975421
0.975433
0.975437
0.975289
0.975284
0.975271
0.975241
0.975196
0.975138
0.975066
0.97497
0.974836
0.974649
0.974407
0.974129
0.973852
0.973628
0.973502
0.973502
0.973628
0.973853
0.974129
0.974408
0.974649
0.974836
0.974971
0.975067
0.975139
0.975197
0.975242
0.975272
0.975284
0.97529
0.975151
0.975145
0.97513
0.975097
0.975051
0.974992
0.974919
0.974821
0.974683
0.974489
0.974239
0.973951
0.973666
0.973434
0.973304
0.973304
0.973434
0.973666
0.973952
0.97424
0.97449
0.974683
0.974822
0.97492
0.974993
0.975052
0.975098
0.975131
0.975146
0.975152
0.975022
0.975013
0.974995
0.974959
0.974911
0.974851
0.974777
0.974677
0.974535
0.974336
0.974078
0.973781
0.973486
0.973247
0.973113
0.973114
0.973248
0.973487
0.973781
0.974078
0.974337
0.974536
0.974678
0.974778
0.974852
0.974912
0.97496
0.974996
0.975014
0.975023
0.974901
0.974889
0.974866
0.974827
0.974776
0.974716
0.974642
0.974541
0.974396
0.974191
0.973925
0.973619
0.973315
0.973069
0.97293
0.97293
0.973069
0.973315
0.973619
0.973926
0.974192
0.974397
0.974542
0.974643
0.974717
0.974777
0.974828
0.974867
0.97489
0.974901
0.974789
0.974774
0.974746
0.974701
0.974649
0.974589
0.974516
0.974415
0.974267
0.974057
0.973783
0.973468
0.973155
0.972901
0.972758
0.972758
0.972901
0.973155
0.973468
0.973784
0.974058
0.974268
0.974416
0.974517
0.97459
0.97465
0.974703
0.974747
0.974775
0.974789
0.974686
0.974668
0.974635
0.974586
0.974532
0.974472
0.974401
0.974301
0.974151
0.973936
0.973654
0.973329
0.973006
0.972745
0.972598
0.972598
0.972745
0.973007
0.973329
0.973654
0.973936
0.974152
0.974301
0.974402
0.974473
0.974533
0.974587
0.974636
0.974669
0.974687
0.974595
0.974573
0.974535
0.974482
0.974426
0.974367
0.974298
0.974199
0.974048
0.973826
0.973536
0.973201
0.972869
0.972601
0.972451
0.972451
0.972601
0.97287
0.973201
0.973536
0.973827
0.974049
0.9742
0.974299
0.974368
0.974427
0.974484
0.974537
0.974574
0.974596
0.974513
0.974489
0.974448
0.974391
0.974334
0.974275
0.974208
0.97411
0.973956
0.973727
0.973426
0.97308
0.972741
0.972467
0.972314
0.972314
0.972467
0.972741
0.973081
0.973427
0.973728
0.973957
0.974111
0.974209
0.974276
0.974335
0.974392
0.974449
0.97449
0.974515
0.974441
0.974415
0.974372
0.974313
0.974254
0.974197
0.974131
0.974032
0.973872
0.973633
0.97332
0.972963
0.972615
0.972338
0.972183
0.972184
0.972338
0.972616
0.972964
0.973321
0.973634
0.973873
0.974033
0.974132
0.974198
0.974255
0.974314
0.974373
0.974416
0.974443
0.974377
0.974349
0.974305
0.974246
0.974187
0.974131
0.974065
0.973962
0.973793
0.973541
0.973213
0.972844
0.972489
0.972208
0.972053
0.972053
0.972209
0.97249
0.972845
0.973214
0.973541
0.973794
0.973962
0.974066
0.974132
0.974188
0.974247
0.974307
0.97435
0.974379
0.974318
0.97429
0.974247
0.974188
0.974131
0.974075
0.974007
0.973896
0.973715
0.973446
0.973102
0.972721
0.972359
0.972075
0.971919
0.971919
0.972075
0.972359
0.972721
0.973103
0.973447
0.973715
0.973897
0.974008
0.974076
0.974132
0.974189
0.974249
0.974291
0.97432
0.974263
0.974235
0.974195
0.974139
0.974085
0.974028
0.973955
0.973833
0.973635
0.973346
0.972985
0.97259
0.972221
0.971935
0.971778
0.971778
0.971935
0.972222
0.972591
0.972985
0.973347
0.973635
0.973834
0.973956
0.974029
0.974086
0.97414
0.974196
0.974236
0.974264
0.974209
0.974182
0.974148
0.974096
0.974046
0.973989
0.973908
0.973772
0.973553
0.973242
0.972861
0.972453
0.972076
0.971786
0.971629
0.971629
0.971786
0.972076
0.972453
0.972861
0.973243
0.973553
0.973772
0.973909
0.973989
0.974046
0.974097
0.974149
0.974184
0.974211
0.974157
0.974132
0.974104
0.974059
0.974014
0.973955
0.973865
0.97371
0.973468
0.973134
0.972732
0.97231
0.971924
0.97163
0.971471
0.971471
0.97163
0.971924
0.97231
0.972733
0.973134
0.973469
0.973711
0.973865
0.973956
0.974014
0.97406
0.974105
0.974133
0.974158
0.974106
0.974084
0.974065
0.974028
0.973988
0.973927
0.973825
0.97365
0.973383
0.973024
0.972602
0.972164
0.971768
0.971469
0.971307
0.971307
0.971469
0.971768
0.972164
0.972602
0.973025
0.973384
0.97365
0.973825
0.973927
0.973988
0.974029
0.974066
0.974085
0.974107
0.974057
0.97404
0.97403
0.974003
0.973968
0.973904
0.973789
0.973592
0.9733
0.972916
0.972472
0.972018
0.971611
0.971304
0.97114
0.97114
0.971305
0.971611
0.972018
0.972472
0.972916
0.9733
0.973592
0.973789
0.973904
0.973969
0.974003
0.974031
0.974041
0.974059
0.974013
0.974
0.974001
0.973984
0.973955
0.973886
0.973756
0.973538
0.97322
0.972812
0.972346
0.971875
0.971455
0.971141
0.970972
0.970972
0.971141
0.971456
0.971875
0.972346
0.972811
0.97322
0.973537
0.973756
0.973886
0.973955
0.973984
0.974002
0.974001
0.974014
0.973972
0.973965
0.973978
0.973971
0.973946
0.973872
0.973727
0.973486
0.973144
0.972711
0.972224
0.971736
0.971303
0.97098
0.970807
0.970807
0.97098
0.971303
0.971735
0.972224
0.97271
0.973143
0.973486
0.973726
0.973871
0.973946
0.973971
0.973979
0.973966
0.973974
0.973937
0.973935
0.973961
0.973963
0.973942
0.97386
0.9737
0.973438
0.973071
0.972613
0.972105
0.971599
0.971153
0.970822
0.970645
0.970645
0.970821
0.971153
0.971599
0.972105
0.972613
0.97307
0.973437
0.973699
0.97386
0.973942
0.973963
0.973961
0.973936
0.973938
0.973905
0.97391
0.973947
0.973958
0.973939
0.973849
0.973674
0.973389
0.972998
0.972516
0.971986
0.971463
0.971004
0.970666
0.970486
0.970486
0.970666
0.971004
0.971462
0.971986
0.972515
0.972996
0.973388
0.973673
0.973849
0.973939
0.973958
0.973948
0.973911
0.973907
0.973877
0.973886
0.973935
0.973953
0.973934
0.973836
0.973644
0.973338
0.972921
0.972415
0.971863
0.971322
0.970853
0.970509
0.970328
0.970328
0.970509
0.970853
0.971322
0.971862
0.972414
0.97292
0.973336
0.973643
0.973835
0.973934
0.973953
0.973935
0.973887
0.973878
0.973849
0.973862
0.973921
0.973944
0.973924
0.973816
0.973608
0.973279
0.972836
0.972304
0.97173
0.971174
0.970696
0.970348
0.970166
0.970166
0.970348
0.970695
0.971173
0.971729
0.972303
0.972834
0.973277
0.973606
0.973815
0.973923
0.973944
0.973921
0.973863
0.97385
0.973821
0.973836
0.973901
0.973927
0.973904
0.973785
0.97356
0.973207
0.972737
0.972178
0.971583
0.971012
0.970527
0.970178
0.969996
0.969996
0.970178
0.970527
0.971011
0.971582
0.972176
0.972735
0.973205
0.973558
0.973784
0.973903
0.973927
0.973902
0.973837
0.973822
0.973791
0.973806
0.973874
0.973898
0.97387
0.973738
0.973496
0.973117
0.972618
0.972032
0.971416
0.970833
0.970344
0.969995
0.969815
0.969815
0.969995
0.970343
0.970832
0.971414
0.97203
0.972616
0.973115
0.973493
0.973737
0.973869
0.973898
0.973874
0.973807
0.973792
0.973759
0.97377
0.973837
0.973855
0.973818
0.973673
0.973411
0.973005
0.972476
0.971862
0.971227
0.970633
0.970142
0.969796
0.969619
0.969619
0.969796
0.970142
0.970632
0.971225
0.97186
0.972473
0.973003
0.973409
0.973672
0.973818
0.973855
0.973837
0.973771
0.97376
0.973726
0.973729
0.973791
0.973799
0.973751
0.973589
0.973304
0.97287
0.972309
0.971669
0.971015
0.970414
0.969923
0.96958
0.969406
0.969406
0.96958
0.969922
0.970413
0.971013
0.971666
0.972307
0.972867
0.973302
0.973587
0.97375
0.973799
0.973792
0.97373
0.973727
0.973695
0.973688
0.97374
0.973734
0.97367
0.973487
0.973178
0.972712
0.97212
0.971453
0.970782
0.970176
0.969686
0.969349
0.969178
0.969178
0.969348
0.969686
0.970174
0.970781
0.971451
0.972118
0.97271
0.973176
0.973486
0.973669
0.973734
0.973741
0.973689
0.973696
0.97367
0.973649
0.973689
0.973665
0.97358
0.973374
0.973035
0.972537
0.971913
0.971221
0.970536
0.969924
0.969437
0.969104
0.968937
0.968937
0.969104
0.969436
0.969923
0.970534
0.971219
0.97191
0.972534
0.973033
0.973372
0.97358
0.973664
0.97369
0.97365
0.973671
0.973655
0.973619
0.973645
0.973598
0.97349
0.973254
0.972883
0.972349
0.971694
0.970979
0.97028
0.969665
0.96918
0.968852
0.968688
0.968688
0.968851
0.969179
0.969663
0.970279
0.970977
0.971692
0.972347
0.97288
0.973252
0.973489
0.973598
0.973645
0.97362
0.973656
0.973654
0.973602
0.973612
0.973541
0.973405
0.973134
0.972726
0.972157
0.971471
0.970734
0.970023
0.969403
0.96892
0.968596
0.968435
0.968435
0.968596
0.96892
0.969402
0.970022
0.970732
0.971469
0.972155
0.972724
0.973132
0.973404
0.973541
0.973613
0.973603
0.973655
0.973671
0.973602
0.973596
0.973499
0.973331
0.973021
0.972573
0.971965
0.971249
0.970491
0.969769
0.969145
0.968663
0.968342
0.968183
0.968183
0.968341
0.968662
0.969144
0.969767
0.970489
0.971247
0.971963
0.972571
0.973019
0.97333
0.973499
0.973597
0.973603
0.973673
0.973707
0.97362
0.9736
0.973475
0.973272
0.97292
0.972428
0.97178
0.971033
0.970254
0.96952
0.968892
0.96841
0.96809
0.967933
0.967933
0.96809
0.968409
0.968891
0.969519
0.970252
0.971031
0.971779
0.972426
0.972918
0.973271
0.973475
0.9736
0.973622
0.973709
0.97376
0.973656
0.973622
0.97347
0.973232
0.972834
0.972295
0.971606
0.970826
0.970026
0.96928
0.968647
0.968163
0.967844
0.967687
0.967687
0.967843
0.968162
0.968646
0.969279
0.970025
0.970825
0.971604
0.972294
0.972832
0.973231
0.97347
0.973623
0.973657
0.973762
0.973828
0.973706
0.973662
0.973483
0.973208
0.972763
0.972176
0.971443
0.97063
0.969808
0.969049
0.968408
0.967922
0.967601
0.967444
0.967444
0.967601
0.967921
0.968408
0.969048
0.969807
0.970629
0.971442
0.972175
0.972762
0.973208
0.973483
0.973662
0.973707
0.97383
0.973908
0.973767
0.973714
0.973511
0.9732
0.972706
0.972069
0.971292
0.970445
0.969599
0.968825
0.968177
0.967686
0.967363
0.967204
0.967204
0.967362
0.967685
0.968176
0.968825
0.969598
0.970444
0.971291
0.972069
0.972706
0.9732
0.973511
0.973715
0.973768
0.973909
0.973997
0.973836
0.973777
0.973549
0.973203
0.97266
0.971972
0.971148
0.970266
0.969395
0.968607
0.96795
0.967453
0.967125
0.966964
0.966963
0.967125
0.967452
0.967949
0.968606
0.969394
0.970265
0.971148
0.971972
0.97266
0.973203
0.973549
0.973778
0.973837
0.973998
0.974097
0.973914
0.97385
0.973597
0.973215
0.972621
0.971879
0.971007
0.970088
0.969192
0.968388
0.967722
0.967219
0.966886
0.966721
0.966721
0.966885
0.967218
0.967721
0.968387
0.969192
0.970088
0.971008
0.97188
0.972621
0.973215
0.973597
0.97385
0.973915
0.974098
0.974213
0.974004
0.973932
0.973653
0.973234
0.972588
0.97179
0.970867
0.969908
0.968985
0.968164
0.967488
0.966979
0.966641
0.966472
0.966472
0.96664
0.966978
0.967488
0.968164
0.968985
0.969909
0.970868
0.97179
0.972588
0.973235
0.973653
0.973933
0.974004
0.974213
0.97435
0.97411
0.974029
0.97372
0.973262
0.97256
0.971704
0.970728
0.969727
0.968773
0.967934
0.967247
0.966731
0.966388
0.966216
0.966216
0.966387
0.96673
0.967247
0.967934
0.968774
0.969727
0.970728
0.971705
0.972561
0.973262
0.97372
0.974029
0.97411
0.974349
0.974512
0.974238
0.974144
0.973799
0.973299
0.972541
0.971625
0.970592
0.969546
0.968559
0.967697
0.966997
0.966474
0.966126
0.965952
0.965952
0.966126
0.966473
0.966997
0.967697
0.968559
0.969546
0.970593
0.971626
0.972541
0.9733
0.973799
0.974144
0.974238
0.974512
0.974705
0.974391
0.974278
0.973893
0.973349
0.972532
0.971556
0.970466
0.969371
0.968345
0.967457
0.966741
0.966208
0.965857
0.965682
0.965681
0.965856
0.966208
0.96674
0.967457
0.968346
0.969371
0.970467
0.971557
0.972533
0.973349
0.973893
0.974278
0.974391
0.974704
0.974928
0.974571
0.974434
0.974002
0.97341
0.972534
0.971498
0.97035
0.969204
0.968136
0.967217
0.966479
0.965936
0.965579
0.965403
0.965403
0.965579
0.965935
0.966479
0.967216
0.968137
0.969205
0.970351
0.971499
0.972535
0.973411
0.974002
0.974434
0.97457
0.974927
0.97518
0.974775
0.974611
0.974126
0.973482
0.972544
0.971448
0.970242
0.969043
0.967931
0.966975
0.966212
0.965654
0.965292
0.965114
0.965114
0.965291
0.965654
0.966212
0.966975
0.967931
0.969044
0.970243
0.97145
0.972546
0.973483
0.974126
0.97461
0.974773
0.975179
0.975458
0.975001
0.974807
0.974264
0.973563
0.97256
0.9714
0.970133
0.968881
0.967722
0.966727
0.965936
0.96536
0.964989
0.964808
0.964808
0.964989
0.96536
0.965935
0.966727
0.967722
0.968882
0.970135
0.971402
0.972561
0.973564
0.974264
0.974806
0.974999
0.975456
0.975758
0.975246
0.97502
0.974417
0.973655
0.972579
0.971348
0.970016
0.968708
0.967499
0.966465
0.965643
0.965047
0.964664
0.964478
0.964478
0.964663
0.965046
0.965643
0.966464
0.9675
0.968709
0.970018
0.97135
0.97258
0.973655
0.974416
0.975019
0.975244
0.975757
0.976079
0.975508
0.97525
0.974583
0.973756
0.972601
0.971291
0.969885
0.968514
0.967253
0.966177
0.965324
0.964705
0.964308
0.964114
0.964114
0.964307
0.964705
0.965324
0.966178
0.967254
0.968515
0.969886
0.971293
0.972602
0.973757
0.974582
0.975248
0.975506
0.976077
0.976422
0.975789
0.975496
0.974762
0.973869
0.972628
0.971231
0.96974
0.968297
0.966979
0.965858
0.964971
0.964327
0.963911
0.963709
0.963708
0.963911
0.964326
0.964971
0.965858
0.96698
0.968298
0.969741
0.971232
0.972629
0.973869
0.974762
0.975494
0.975786
0.97642
0.976793
0.976092
0.975761
0.974956
0.973993
0.972663
0.97117
0.969585
0.968062
0.966676
0.965504
0.964578
0.963904
0.963468
0.963254
0.963254
0.963468
0.963904
0.964578
0.965505
0.966677
0.968063
0.969586
0.971171
0.972663
0.973993
0.974955
0.97576
0.97609
0.97679
0.977199
0.976427
0.976053
0.975168
0.97413
0.972705
0.971113
0.969427
0.967814
0.966353
0.96512
0.964146
0.963436
0.962974
0.962746
0.962746
0.962974
0.963436
0.964146
0.96512
0.966353
0.967815
0.969428
0.971113
0.972705
0.97413
0.975167
0.976051
0.976425
0.977196
0.977651
0.976804
0.976379
0.975406
0.974284
0.972757
0.971059
0.969269
0.96756
0.966015
0.964712
0.963682
0.962926
0.962431
0.962186
0.962186
0.962431
0.962926
0.963682
0.964712
0.966015
0.96756
0.969269
0.971059
0.972757
0.974284
0.975405
0.976377
0.976802
0.977649
0.978162
0.977236
0.976752
0.97568
0.974462
0.97282
0.971009
0.96911
0.967302
0.965668
0.964289
0.963192
0.962383
0.961848
0.961581
0.961581
0.961847
0.962382
0.963192
0.964289
0.965668
0.967302
0.96911
0.971009
0.97282
0.974462
0.975679
0.976751
0.977234
0.97816
0.978746
0.977738
0.977189
0.976007
0.974676
0.972903
0.970967
0.968952
0.967041
0.965315
0.963853
0.962684
0.961813
0.961233
0.960942
0.960942
0.961232
0.961812
0.962684
0.963853
0.965314
0.96704
0.968952
0.970967
0.972902
0.974675
0.976006
0.977187
0.977736
0.978744
0.979416
0.978322
0.977704
0.976404
0.97494
0.973015
0.97094
0.968798
0.966776
0.964953
0.963405
0.962158
0.961221
0.960593
0.960278
0.960277
0.960593
0.96122
0.962157
0.963404
0.964952
0.966776
0.968798
0.970939
0.973015
0.974939
0.976403
0.977702
0.97832
0.979414
0.980178
0.978996
0.978309
0.976887
0.975271
0.973171
0.970937
0.968654
0.966509
0.964579
0.962938