# vtk DataFile Version 3.0
Grid data
ASCII
DATASET STRUCTURED_POINTS
DIMENSIONS 30 300 1
ORIGIN 0 0 0
SPACING 0.00833333 0.00333333 1
POINT_DATA 9000
SCALARS rho double
LOOKUP_TABLE default
0.97373
0.973752
0.973787
0.973808
0.973805
0.973783
0.97373
0.973615
0.973401
0.97307
0.972646
0.972298
0.971977
0.971712
0.971561
0.971561
0.971714
0.97198
0.972301
0.972649
0.973074
0.973402
0.973614
0.973727
0.97378
0.973803
0.973807
0.973788
0.973755
0.973729
0.972723
0.97277
0.972839
0.972888
0.972902
0.972897
0.972871
0.972798
0.972648
0.972402
0.972117
0.971697
0.971247
0.970871
0.970659
0.97066
0.970874
0.97125
0.9717
0.972118
0.972403
0.972646
0.972795
0.972866
0.972892
0.972899
0.972888
0.972844
0.972779
0.972735
0.97267
0.972712
0.972776
0.972825
0.972847
0.972858
0.972855
0.972813
0.972667
0.972393
0.972015
0.971505
0.970965
0.970506
0.970243
0.970244
0.970509
0.970969
0.971508
0.972016
0.972392
0.972664
0.972808
0.972849
0.972852
0.972843
0.972825
0.972781
0.972723
0.972684
0.97303
0.973051
0.973074
0.973083
0.97308
0.973078
0.973068
0.973015
0.972858
0.972584
0.972182
0.971633
0.971022
0.970478
0.970156
0.970157
0.970479
0.971024
0.971635
0.972182
0.97258
0.972853
0.973008
0.97306
0.973071
0.973075
0.973081
0.973077
0.973059
0.97304
0.97354
0.97354
0.973518
0.973478
0.973443
0.973429
0.973422
0.973381
0.973238
0.972951
0.972488
0.971865
0.971151
0.970497
0.970107
0.970107
0.970498
0.971152
0.971866
0.972487
0.972948
0.973233
0.973375
0.973414
0.973422
0.973438
0.973476
0.97352
0.973546
0.973548
0.973974
0.973962
0.973913
0.973842
0.973784
0.973762
0.973761
0.97373
0.973596
0.973308
0.972814
0.972116
0.971295
0.970536
0.970079
0.97008
0.970537
0.971294
0.972115
0.972812
0.973304
0.973591
0.973723
0.973754
0.973756
0.97378
0.973841
0.973914
0.973966
0.973979
0.97425
0.974237
0.974185
0.974106
0.97404
0.974017
0.974022
0.974
0.973875
0.973577
0.973042
0.97227
0.971371
0.970546
0.970046
0.970047
0.970547
0.971372
0.972268
0.973039
0.973573
0.97387
0.973993
0.974015
0.974011
0.974036
0.974105
0.974186
0.97424
0.974254
0.974338
0.974326
0.974279
0.974204
0.974138
0.974115
0.974122
0.974104
0.973985
0.973678
0.973108
0.972282
0.971336
0.970481
0.969968
0.969969
0.970483
0.971337
0.972281
0.973104
0.973673
0.973979
0.974098
0.974115
0.974109
0.974134
0.974203
0.97428
0.974329
0.974341
0.974281
0.974269
0.974224
0.974153
0.97409
0.974071
0.974081
0.974068
0.973949
0.973627
0.973023
0.972156
0.971186
0.970346
0.969864
0.969866
0.970349
0.971188
0.972155
0.973019
0.973621
0.973942
0.974061
0.974074
0.974065
0.974086
0.974151
0.974225
0.974272
0.974284
0.974143
0.974129
0.974083
0.974013
0.973956
0.97394
0.973952
0.973939
0.973815
0.973478
0.972843
0.971938
0.970959
0.970166
0.969744
0.969746
0.970169
0.970961
0.971937
0.972839
0.973471
0.973807
0.973931
0.973944
0.973934
0.973951
0.974012
0.974084
0.974132
0.974146
0.973988
0.973972
0.973924
0.973857
0.973804
0.973791
0.973801
0.973785
0.973651
0.973296
0.972627
0.971695
0.970728
0.969986
0.969613
0.969615
0.96999
0.970731
0.971694
0.972623
0.973289
0.973643
0.973776
0.973793
0.973784
0.973799
0.973855
0.973924
0.973974
0.973991
0.97385
0.973832
0.973783
0.973718
0.973668
0.973655
0.973663
0.973639
0.973491
0.973108
0.972409
0.971475
0.970541
0.969823
0.969452
0.969454
0.969828
0.970546
0.971476
0.972406
0.973101
0.973482
0.97363
0.973654
0.973648
0.973663
0.973715
0.973783
0.973834
0.973853
0.973732
0.973712
0.973662
0.973599
0.973551
0.973539
0.973545
0.973509
0.973334
0.972914
0.972202
0.971303
0.970408
0.969674
0.969262
0.969264
0.96968
0.970415
0.971308
0.972201
0.972907
0.973324
0.973499
0.973535
0.97353
0.973545
0.973595
0.973661
0.973714
0.973734
0.973612
0.973591
0.97354
0.973479
0.973435
0.973426
0.973427
0.973366
0.973149
0.972699
0.972011
0.971171
0.970295
0.969516
0.969046
0.969047
0.969521
0.970303
0.971178
0.972013
0.972694
0.973139
0.973355
0.973416
0.973417
0.973429
0.973475
0.973539
0.973592
0.973614
0.973465
0.973444
0.973395
0.973339
0.973302
0.973293
0.973275
0.973175
0.972917
0.97247
0.971837
0.971042
0.970153
0.969322
0.96881
0.968811
0.969327
0.970161
0.971052
0.971842
0.972467
0.972909
0.973163
0.973263
0.973283
0.973294
0.973334
0.973393
0.973444
0.973465
0.973273
0.973254
0.97321
0.973162
0.97313
0.97311
0.973059
0.972922
0.972654
0.972243
0.97166
0.97087
0.96994
0.969076
0.968554
0.968555
0.96908
0.969948
0.970879
0.971668
0.972244
0.972648
0.972911
0.973047
0.973098
0.973121
0.973156
0.973206
0.973253
0.973273
0.973032
0.973017
0.972979
0.972937
0.972901
0.972861
0.972783
0.972635
0.972391
0.97202
0.971444
0.970614
0.969645
0.968781
0.968278
0.96828
0.968786
0.969652
0.970623
0.971454
0.972025
0.972388
0.972626
0.972771
0.972849
0.972891
0.972929
0.972974
0.973014
0.973031
0.97275
0.972737
0.972703
0.972661
0.972617
0.972564
0.972484
0.972355
0.972139
0.97177
0.971147
0.970262
0.969282
0.968451
0.967984
0.967986
0.968457
0.969291
0.970271
0.971156
0.971777
0.97214
0.972349
0.972473
0.972551
0.972605
0.972652
0.972697
0.972733
0.972748
0.97244
0.972428
0.972394
0.972349
0.972303
0.972257
0.9722
0.972092
0.971869
0.971445
0.970748
0.969832
0.968878
0.968099
0.96767
0.967673
0.968106
0.968888
0.969841
0.970757
0.971453
0.971872
0.972089
0.972191
0.972245
0.97229
0.972339
0.972387
0.972423
0.972436
0.972112
0.9721
0.972068
0.972026
0.971992
0.97197
0.971932
0.971812
0.971533
0.971021
0.970264
0.969355
0.968454
0.967732
0.96734
0.967343
0.96774
0.968464
0.969366
0.970274
0.971028
0.971537
0.971811
0.971925
0.971958
0.971979
0.972015
0.972059
0.972094
0.972106
0.971771
0.971763
0.971739
0.97171
0.971697
0.971693
0.971646
0.971473
0.971106
0.970516
0.969736
0.968862
0.968022
0.967359
0.967
0.967002
0.967366
0.968033
0.968873
0.969747
0.970524
0.971111
0.971473
0.97164
0.971683
0.971684
0.971698
0.971728
0.971754
0.971763
0.971421
0.971421
0.971412
0.971404
0.971408
0.971399
0.971311
0.971064
0.970617
0.969979
0.969205
0.968376
0.967598
0.966991
0.966666
0.966668
0.966998
0.967608
0.968388
0.969217
0.969988
0.970623
0.971065
0.971307
0.97139
0.971395
0.97139
0.971399
0.97141
0.971411
0.971075
0.971084
0.971094
0.971104
0.971112
0.971078
0.970935
0.970621
0.970119
0.96946
0.968703
0.967919
0.9672
0.96665
0.96636
0.966362
0.966656
0.967209
0.96793
0.968715
0.969471
0.970127
0.970624
0.970933
0.97107
0.9711
0.97109
0.97108
0.971072
0.971063
0.970756
0.970773
0.970798
0.970819
0.97082
0.970754
0.970563
0.9702
0.969664
0.968993
0.968251
0.967509
0.96685
0.96636
0.966107
0.966109
0.966366
0.966858
0.96752
0.968263
0.969005
0.969673
0.970205
0.970563
0.970749
0.97081
0.970807
0.970785
0.97076
0.970743
0.970489
0.97051
0.970546
0.970572
0.970562
0.970469
0.970242
0.969843
0.969278
0.968594
0.967865
0.967165
0.966569
0.96614
0.965923
0.965925
0.966144
0.966576
0.967175
0.967877
0.968606
0.969288
0.969849
0.970244
0.970466
0.970555
0.970562
0.970535
0.9705
0.970479
0.970297
0.97032
0.97036
0.970387
0.970369
0.970255
0.969998
0.969564
0.968968
0.968271
0.967556
0.9669
0.966367
0.965999
0.965818
0.96582
0.966003
0.966373
0.966908
0.967566
0.968283
0.968979
0.969572
0.970002
0.970255
0.970364
0.97038
0.970352
0.970313
0.97029
0.970188
0.970214
0.970259
0.970284
0.970256
0.970121
0.969832
0.96936
0.968733
0.968025
0.967327
0.966717
0.966248
0.96594
0.965795
0.965796
0.965943
0.966253
0.966725
0.967337
0.968036
0.968744
0.969369
0.969837
0.970122
0.970254
0.97028
0.970254
0.970211
0.970186
0.97016
0.970194
0.970247
0.97027
0.970227
0.970063
0.969735
0.969224
0.968569
0.967856
0.96718
0.966617
0.96621
0.96596
0.96585
0.96585
0.965963
0.966214
0.966623
0.967188
0.967866
0.96858
0.969233
0.969741
0.970066
0.970226
0.970267
0.970245
0.970193
0.970161
0.970207
0.970251
0.970318
0.970339
0.970275
0.970075
0.969704
0.969155
0.968478
0.967764
0.967112
0.966596
0.96625
0.966057
0.96598
0.96598
0.966059
0.966253
0.966602
0.96712
0.967773
0.968488
0.969164
0.969711
0.970079
0.970276
0.970338
0.970318
0.970253
0.970211
0.970331
0.970381
0.970458
0.970475
0.970389
0.97015
0.969738
0.969156
0.968462
0.967752
0.967126
0.966656
0.966368
0.966229
0.966183
0.966183
0.96623
0.96637
0.96666
0.967132
0.96776
0.968472
0.969165
0.969746
0.970155
0.970391
0.970476
0.97046
0.970384
0.970336
0.970543
0.970585
0.970656
0.97066
0.97055
0.97028
0.969834
0.969226
0.968521
0.967818
0.967219
0.966796
0.966564
0.966475
0.966459
0.966459
0.966476
0.966565
0.966799
0.967224
0.967825
0.96853
0.969235
0.969842
0.970286
0.970554
0.970663
0.970659
0.970589
0.970547
0.970847
0.970866
0.970908
0.970882
0.970745
0.970449
0.96998
0.969354
0.968643
0.967951
0.967384
0.967008
0.966831
0.966789
0.966799
0.966799
0.96679
0.966832
0.967011
0.967388
0.967957
0.96865
0.969362
0.969987
0.970456
0.97075
0.970886
0.970912
0.970871
0.970851
0.971233
0.971221
0.971215
0.971141
0.970967
0.970644
0.970156
0.969518
0.968807
0.968133
0.967602
0.967276
0.96715
0.967152
0.967185
0.967185
0.967152
0.967151
0.967278
0.967605
0.968137
0.968813
0.969525
0.970163
0.970651
0.970974
0.971148
0.971221
0.971226
0.971236
0.971667
0.971628
0.971573
0.971444
0.971221
0.970863
0.97035
0.969702
0.968995
0.968343
0.967851
0.967574
0.967497
0.967536
0.96759
0.96759
0.967536
0.967497
0.967575
0.967853
0.968346
0.969
0.969707
0.970356
0.97087
0.97123
0.971453
0.971581
0.971634
0.971672
0.972109
0.972054
0.971965
0.971788
0.971512
0.971106
0.970561
0.969899
0.969199
0.968571
0.968116
0.967883
0.967848
0.96792
0.967991
0.967991
0.96792
0.967848
0.967883
0.968117
0.968573
0.969202
0.969903
0.970567
0.971114
0.971522
0.971798
0.971974
0.972061
0.972115
0.972527
0.972465
0.97236
0.97215
0.971828
0.971374
0.970791
0.970114
0.96942
0.968815
0.968392
0.968196
0.968196
0.968294
0.96838
0.96838
0.968294
0.968196
0.968196
0.968393
0.968816
0.969423
0.970118
0.970797
0.971382
0.971838
0.972161
0.97237
0.972473
0.972534
0.972905
0.972838
0.972726
0.972496
0.972141
0.971647
0.971034
0.970345
0.969659
0.969075
0.968681
0.968515
0.968542
0.968663
0.968761
0.968761
0.968663
0.968542
0.968515
0.968681
0.969076
0.969661
0.970348
0.97104
0.971655
0.97215
0.972506
0.972736
0.972847
0.972913
0.973244
0.973167
0.97304
0.972791
0.972413
0.971898
0.971269
0.970577
0.969903
0.969341
0.968974
0.968835
0.968888
0.969029
0.969138
0.969138
0.969029
0.968888
0.968836
0.968974
0.969342
0.969905
0.970581
0.971274
0.971905
0.972422
0.9728
0.973048
0.973175
0.973252
0.973547
0.973449
0.973294
0.973018
0.97262
0.972096
0.971466
0.970784
0.970129
0.969591
0.969252
0.969141
0.969219
0.96938
0.969499
0.9695
0.96938
0.96922
0.969143
0.969253
0.969593
0.970131
0.970787
0.971471
0.972101
0.972627
0.973025
0.973301
0.973456
0.973553
0.973809
0.973686
0.97349
0.973175
0.972752
0.972223
0.971603
0.970941
0.97031
0.969801
0.969492
0.96941
0.969513
0.969693
0.969823
0.969823
0.969693
0.969514
0.969412
0.969493
0.969802
0.970311
0.970943
0.971607
0.972228
0.972758
0.973181
0.973496
0.973692
0.973813
0.97402
0.973875
0.973635
0.973275
0.97282
0.972282
0.971673
0.971033
0.970432
0.969954
0.969676
0.969624
0.96975
0.969947
0.970086
0.970086
0.969948
0.969752
0.969626
0.969678
0.969955
0.970433
0.971035
0.971676
0.972286
0.972826
0.973281
0.97364
0.973878
0.974022
0.974172
0.97401
0.973732
0.973331
0.972842
0.972288
0.971684
0.971066
0.970495
0.970049
0.969804
0.969778
0.969925
0.970136
0.970283
0.970283
0.970137
0.969927
0.96978
0.969805
0.97005
0.970495
0.971068
0.971687
0.972292
0.972847
0.973336
0.973736
0.974011
0.974172
0.97426
0.974089
0.973785
0.973351
0.972832
0.97226
0.971656
0.971054
0.970509
0.970096
0.969881
0.969881
0.970046
0.970269
0.970421
0.970422
0.97027
0.970048
0.969883
0.969883
0.970097
0.97051
0.971056
0.971659
0.972265
0.972838
0.973356
0.973787
0.974088
0.974258
0.974286
0.974114
0.973795
0.973343
0.972802
0.972212
0.971603
0.971011
0.970488
0.970104
0.96992
0.969944
0.970126
0.97036
0.970517
0.970517
0.970361
0.970128
0.969946
0.969922
0.970106
0.97049
0.971014
0.971607
0.972218
0.972808
0.973347
0.973796
0.974111
0.974282
0.974258
0.97409
0.973769
0.97331
0.972756
0.972154
0.971537
0.97095
0.970444
0.970085
0.96993
0.969978
0.970176
0.970419
0.97058
0.970581
0.970421
0.970178
0.96998
0.969932
0.970088
0.970446
0.970954
0.971542
0.97216
0.972762
0.973313
0.973769
0.974087
0.974252
0.974184
0.974027
0.973713
0.973257
0.972699
0.972087
0.971465
0.970879
0.970385
0.970048
0.969918
0.969988
0.970202
0.970454
0.970619
0.97062
0.970456
0.970204
0.969991
0.969921
0.970051
0.970389
0.970884
0.971471
0.972094
0.972704
0.97326
0.973712
0.974023
0.974178
0.974075
0.973934
0.973634
0.97319
0.972633
0.972016
0.97139
0.970805
0.97032
0.970001
0.969892
0.969981
0.970209
0.970469
0.970637
0.970637
0.970471
0.970211
0.969985
0.969895
0.970005
0.970325
0.970811
0.971396
0.972023
0.972637
0.973191
0.973632
0.973928
0.974068
0.973939
0.973816
0.973539
0.973112
0.972561
0.971944
0.971314
0.970731
0.970254
0.969949
0.969859
0.969964
0.970202
0.970468
0.970639
0.970639
0.97047
0.970205
0.969967
0.969863
0.969954
0.970259
0.970737
0.971321
0.97195
0.972565
0.973112
0.973536
0.973809
0.973931
0.973782
0.973679
0.97343
0.973026
0.972487
0.971871
0.971241
0.970659
0.97019
0.969899
0.969824
0.969942
0.970188
0.970459
0.970631
0.970632
0.970461
0.970191
0.969946
0.969829
0.969905
0.970196
0.970666
0.971248
0.971877
0.972491
0.973026
0.973426
0.973672
0.973774
0.973609
0.973526
0.973309
0.972933
0.972411
0.9718
0.971171
0.970592
0.97013
0.969853
0.969792
0.96992
0.970172
0.970446
0.970618
0.970619
0.970448
0.970175
0.969924
0.969797
0.969859
0.970138
0.9706
0.971179
0.971806
0.972413
0.972932
0.973304
0.973519
0.9736
0.973423
0.973359
0.973174
0.972831
0.97233
0.97173
0.971104
0.970529
0.970076
0.96981
0.969761
0.969898
0.970155
0.970429
0.970602
0.970603
0.970432
0.970158
0.969903
0.969767
0.969817
0.970084
0.970538
0.971112
0.971735
0.972332
0.972829
0.973169
0.973352
0.973414
0.973227
0.973179
0.973024
0.972714
0.972241
0.971657
0.971039
0.97047
0.970025
0.969769
0.969731
0.969875
0.970134
0.970408
0.97058
0.970581
0.97041
0.970137
0.96988
0.969738
0.969778
0.970034
0.970479
0.971047
0.971662
0.972242
0.972711
0.973018
0.97317
0.973218
0.973024
0.972986
0.972855
0.972579
0.972138
0.971576
0.970972
0.970412
0.969976
0.969731
0.969701
0.969848
0.970106
0.970378
0.970548
0.970548
0.97038
0.97011
0.969853
0.969708
0.96974
0.969986
0.970422
0.97098
0.971581
0.972138
0.972575
0.972849
0.972977
0.973015
0.972818
0.972783
0.972668
0.972421
0.972016
0.971484
0.970899
0.970352
0.969927
0.969693
0.96967
0.969817
0.970071
0.970337
0.970503
0.970504
0.97034
0.970075
0.969824
0.969678
0.969703
0.969938
0.970361
0.970906
0.971487
0.972015
0.972416
0.972661
0.972774
0.972808
0.972611
0.972574
0.972464
0.972238
0.971868
0.971373
0.970816
0.970286
0.969875
0.969653
0.969638
0.969787
0.970034
0.97029
0.970449
0.97045
0.970292
0.970038
0.969793
0.969647
0.969664
0.969886
0.970295
0.970823
0.971376
0.971866
0.972233
0.972456
0.972564
0.972601
0.972404
0.97236
0.972247
0.972032
0.971693
0.971239
0.970718
0.970212
0.969817
0.969608
0.969603
0.969755
0.969996
0.970241
0.970391
0.970392
0.970243
0.97
0.969762
0.969613
0.96962
0.969828
0.970221
0.970724
0.97124
0.97169
0.972026
0.972239
0.972351
0.972395
0.972196
0.972146
0.972024
0.971808
0.97149
0.971075
0.970598
0.970127
0.969754
0.969558
0.969561
0.969717
0.969955
0.97019
0.970332
0.970332
0.970192
0.96996
0.969725
0.969572
0.96957
0.969765
0.970136
0.970603
0.971075
0.971486
0.971802
0.972015
0.972137
0.972187
0.971984
0.97193
0.9718
0.971577
0.971265
0.970879
0.970448
0.970025
0.969685
0.969506
0.969515
0.969671
0.969905
0.970134
0.97027
0.970271
0.970136
0.96991
0.969679
0.969525
0.969518
0.969696
0.970033
0.970452
0.970878
0.971261
0.971571
0.971792
0.971922
0.971975
0.971764
0.971712
0.971581
0.971348
0.971029
0.970655
0.970263
0.969894
0.969605
0.969455
0.969468
0.969619
0.969845
0.970068
0.970202
0.970203
0.970071
0.969851
0.969627
0.969479
0.969466
0.969615
0.969901
0.970265
0.970653
0.971024
0.971341
0.971573
0.971704
0.971755
0.971534
0.971488
0.971364
0.971126
0.970795
0.970415
0.970043
0.969724
0.969496
0.969394
0.969427
0.969572
0.969785
0.969996
0.970124
0.970125
0.969999
0.969791
0.969581
0.969438
0.969405
0.969506
0.969729
0.970045
0.970413
0.97079
0.97112
0.971356
0.971481
0.971526
0.971298
0.971257
0.971143
0.970909
0.97057
0.970177
0.969806
0.969516
0.969346
0.969306
0.969379
0.969533
0.969733
0.969924
0.97004
0.970041
0.969927
0.969739
0.969542
0.969389
0.969316
0.969354
0.96952
0.969806
0.970174
0.970564
0.970903
0.971136
0.97125
0.971291
0.971061
0.971019
0.970911
0.970687
0.970353
0.969954
0.969572
0.969288
0.969153
0.96917
0.969298
0.969484
0.969684
0.969857
0.969958
0.969959
0.969861
0.969691
0.969493
0.969309
0.969179
0.969159
0.96929
0.969571
0.969949
0.970347
0.970681
0.970905
0.971013
0.971055
0.970826
0.970776
0.970666
0.970451
0.970133
0.969745
0.96936
0.969068
0.968937
0.968985
0.969162
0.969392
0.969614
0.969788
0.969881
0.969883
0.969793
0.969622
0.969401
0.969171
0.968992
0.968941
0.969068
0.969358
0.96974
0.970127
0.970445
0.97066
0.970771
0.970822
0.970597
0.970533
0.970409
0.970194
0.969896
0.969536
0.96917
0.968874
0.968731
0.968775
0.968971
0.969238
0.9695
0.9697
0.969804
0.969806
0.969706
0.969508
0.969246
0.968978
0.968779
0.968731
0.968872
0.969166
0.969532
0.969891
0.970189
0.970405
0.97053
0.970594
0.970372
0.970293
0.970148
0.969921
0.969635
0.969309
0.968981
0.968707
0.968558
0.968581
0.968764
0.969043
0.969338
0.969577
0.969706
0.969708
0.969584
0.969347
0.96905
0.968768
0.968581
0.968555
0.968703
0.968976
0.969304
0.969631
0.969917
0.970145
0.970291
0.970371
0.970149
0.970056
0.969889
0.969641
0.969352
0.96905
0.968769
0.968543
0.968418
0.968433
0.968592
0.968856
0.969156
0.969415
0.969562
0.969565
0.969422
0.969164
0.96886
0.968593
0.96843
0.968413
0.968537
0.968763
0.969045
0.969347
0.969638
0.969887
0.970056
0.970149
0.969923
0.969821
0.969635
0.969362
0.969055
0.968759
0.968516
0.968351
0.968286
0.968331
0.968483
0.968718
0.968989
0.969227
0.969366
0.969368
0.969232
0.968993
0.968719
0.96848
0.968325
0.968278
0.968344
0.968509
0.968754
0.969051
0.96936
0.969635
0.969823
0.969925
0.969688
0.96958
0.96938
0.969085
0.968754
0.968448
0.968223
0.968113
0.968123
0.968233
0.968412
0.96863
0.968851
0.969034
0.969138
0.969139
0.969035
0.96885
0.968626
0.968406
0.968224
0.968113
0.968104
0.968216
0.968442
0.968751
0.969084
0.969381
0.969583
0.969692
0.969431
0.969319
0.96911
0.968799
0.968448
0.968125
0.967901
0.967821
0.967894
0.968079
0.968313
0.968542
0.968731
0.968862
0.968926
0.968925
0.968857
0.968724
0.968533
0.968302
0.968068
0.967883
0.967811
0.967893
0.96812
0.968446
0.968799
0.969112
0.969322
0.969435
0.969132
0.969016
0.968803
0.968485
0.968124
0.967787
0.967552
0.967479
0.967584
0.967824
0.96812
0.968394
0.968599
0.968722
0.968772
0.968769
0.968712
0.968586
0.96838
0.968105
0.96781
0.96757
0.967467
0.967544
0.967782
0.968122
0.968486
0.968805
0.96902
0.969135
0.968763
0.968647
0.968433
0.968116
0.967754
0.96741
0.967164
0.96708
0.967188
0.967455
0.967803
0.968146
0.968418
0.968591
0.968666
0.968662
0.968579
0.968401
0.968127
0.967785
0.967438
0.967173
0.967067
0.967155
0.967405
0.967752
0.968117
0.968436
0.96865
0.968767
0.9683
0.968184
0.967974
0.96766
0.967302
0.966958
0.966704
0.966608
0.966707
0.966983
0.96737
0.967784
0.968147
0.968405
0.968531
0.968526
0.968393
0.968129
0.967763
0.967349
0.966963
0.96669
0.966594
0.966695
0.966953
0.967301
0.967661
0.967976
0.968187
0.968303
0.967721
0.967607
0.9674
0.967091
0.966737
0.966394
0.966139
0.966039
0.966135
0.966418
0.966833
0.967301
0.967738
0.96807
0.968242
0.968238
0.968058
0.967721
0.96728
0.966811
0.966397
0.966117
0.966024
0.966129
0.966389
0.966735
0.967091
0.967402
0.967609
0.967723
0.967022
0.966908
0.966704
0.966396
0.966043
0.965702
0.965451
0.965358
0.965465
0.96576
0.966193
0.966685
0.967151
0.967509
0.9677
0.967696
0.967499
0.967136
0.966667
0.966173
0.965741
0.965447
0.965344
0.965441
0.965696
0.96604
0.966395
0.966704
0.966908
0.967023
0.966221
0.966105
0.9659
0.965592
0.965238
0.9649
0.964658
0.96458
0.964704
0.965013
0.96545
0.965935
0.966383
0.966722
0.966901
0.966898
0.966715
0.966372
0.96592
0.965433
0.964996
0.964689
0.964568
0.964648
0.964893
0.965233
0.965589
0.965899
0.966104
0.96622
0.965367
0.965248
0.96504
0.964728
0.964375
0.964044
0.963815
0.963753
0.963891
0.964204
0.964631
0.965087
0.965494
0.965791
0.965944
0.965942
0.965786
0.965486
0.965077
0.964619
0.964192
0.963879
0.963743
0.963806
0.964037
0.96437
0.964724
0.965037
0.965245
0.965365
0.964533
0.964409
0.964197
0.963883
0.963534
0.963213
0.962999
0.962951
0.963095
0.963401
0.963805
0.964225
0.964588
0.964845
0.964974
0.964974
0.964843
0.964584
0.96422
0.963799
0.963394
0.963087
0.962944
0.962992
0.963206
0.963528
0.963878
0.964193
0.964405
0.964529
0.963801
0.963673
0.963457
0.963142
0.962799
0.96249
0.962292
0.962254
0.962397
0.962689
0.963066
0.963452
0.963781
0.964012
0.964126
0.964126
0.964012
0.963781
0.963451
0.963064
0.962686
0.962393
0.96225
0.962288
0.962486
0.962794
0.963138
0.963452
0.963669
0.963797
0.963243
0.963111
0.962892
0.962578
0.962242
0.961947
0.961762
0.961732
0.961871
0.962147
0.9625
0.962859
0.963165
0.96338
0.963487
0.963487
0.963381
0.963167
0.962861
0.962502
0.962148
0.961871
0.961731
0.96176
0.961945
0.96224
0.962575
0.962889
0.963108
0.96324
0.962904
0.962769
0.962547
0.962235
0.961907
0.961624
0.961451
0.961428
0.961565
0.961829
0.962162
0.962499
0.962786
0.962986
0.963087
0.963088
0.962989
0.962789
0.962504
0.962166
0.961833
0.961568
0.96143
0.961452
0.961625
0.961908
0.962235
0.962546
0.962768
0.962903
0.962797
0.962659
0.962435
0.962124
0.961804
0.961532
0.961371
0.961356
0.961494
0.96175
0.962066
0.962381
0.962645
0.962827
0.962918
0.962919
0.96283
0.962649
0.962386
0.962072
0.961755
0.961499
0.96136
0.961374
0.961535
0.961807
0.962127
0.962437
0.962661
0.962799
0.962909
0.962768
0.962543
0.962235
0.961923
0.961663
0.961513
0.961507
0.961646
0.961894
0.962193
0.962485
0.962723
0.962884
0.962962
0.962963
0.962886
0.962727
0.96249
0.9622
0.9619
0.961652
0.961512
0.961517
0.961666
0.961927
0.962239
0.962547
0.962773
0.962914
0.963216
0.963076
0.962851
0.962547
0.962244
0.961994
0.961854
0.961854
0.961993
0.962232
0.962515
0.962783
0.962996
0.963135
0.963201
0.963202
0.963137
0.962999
0.962788
0.962521
0.962239
0.962
0.96186
0.961859
0.961998
0.962248
0.962552
0.962857
0.963082
0.963223
0.963698
0.963559
0.96334
0.963041
0.962744
0.962501
0.962367
0.962369
0.962504
0.962733
0.962998
0.963247
0.963439
0.963561
0.963618
0.963618
0.963563
0.963442
0.963251
0.963004
0.962739
0.962511
0.962375
0.962373
0.962506
0.962749
0.963046
0.963346
0.963567
0.963706
0.96433
0.964195
0.963983
0.963691
0.963398
0.963156
0.963019
0.963016
0.963143
0.96336
0.963612
0.963845
0.964024
0.964135
0.964185
0.964185
0.964136
0.964026
0.963849
0.963617
0.963366
0.963149
0.963023
0.963025
0.963161
0.963403
0.963696
0.963989
0.964203
0.964338
0.96508
0.964949
0.964746
0.964459
0.964167
0.963918
0.963772
0.963757
0.963872
0.964077
0.964319
0.964543
0.964712
0.964816
0.964861
0.964861
0.964817
0.964714
0.964545
0.964322
0.964082
0.963878
0.963763
0.963778
0.963924
0.964172
0.964465
0.964752
0.964956
0.965087
0.965899
0.965771
0.965576
0.965293
0.964997
0.964737
0.964576
0.964546
0.964648
0.964843
0.965077
0.965294
0.965458
0.965556
0.965598
0.965599
0.965557
0.965459
0.965296
0.965079
0.964847
0.964653
0.964552
0.964582
0.964743
0.965003
0.965299
0.965582
0.965777
0.965905
0.966729
0.966602
0.966411
0.966129
0.965827
0.965555
0.965379
0.965334
0.965424
0.96561
0.965839
0.966052
0.966212
0.966305
0.966345
0.966345
0.966306
0.966213
0.966054
0.965841
0.965614
0.965428
0.965339
0.965384
0.965561
0.965833
0.966135
0.966417
0.966607
0.966734
0.967514
0.967383
0.96719
0.966904
0.966596
0.966314
0.966126
0.966071
0.966152
0.966334
0.966559
0.96677
0.966926
0.967017
0.967054
0.967055
0.967018
0.966928
0.966772
0.966562
0.966337
0.966156
0.966075
0.966132
0.96632
0.966602
0.96691
0.967196
0.967388
0.967519
0.968212
0.968072
0.967869
0.967574
0.967258
0.966971
0.966778
0.966718
0.966795
0.966974
0.967197
0.967406
0.967561
0.96765
0.967686
0.967686
0.967651
0.967562
0.967409
0.9672
0.966977
0.966799
0.966722
0.966783
0.966976
0.967264
0.96758
0.967875
0.968076
0.968216
0.968798
0.968646
0.968428
0.968117
0.967792
0.967502
0.96731
0.967251
0.967327
0.967504
0.967726
0.967933
0.968086
0.968174
0.968211
0.968211
0.968175
0.968088
0.967935
0.967728
0.967507
0.967331
0.967254
0.967314
0.967507
0.967798
0.968123
0.968434
0.968651
0.968802
0.969267
0.969103
0.968866
0.968536
0.968199
0.967907
0.967718
0.967663
0.967742
0.967917
0.968134
0.968337
0.968488
0.968576
0.968613
0.968613
0.968577
0.96849
0.968339
0.968136
0.967919
0.967745
0.967667
0.967723
0.967912
0.968205
0.968542
0.968871
0.969108
0.969272
0.96962
0.969447
0.969192
0.968845
0.968496
0.9682
0.968014
0.967963
0.968044
0.968216
0.968428
0.968626
0.968772
0.968858
0.968894
0.968894
0.968859
0.968774
0.968628
0.96843
0.968219
0.968046
0.967967
0.968018
0.968205
0.968501
0.96885
0.969197
0.969451
0.969625
0.96986
0.969682
0.969418
0.969059
0.968701
0.968399
0.968213
0.968165
0.968246
0.968417
0.968624
0.968814
0.968955
0.969036
0.969069
0.969069
0.969037
0.968957
0.968817
0.968626
0.968419
0.968249
0.968168
0.968217
0.968403
0.968705
0.969063
0.969422
0.969686
0.969864
0.969992
0.969815
0.969551
0.969189
0.968826
0.96852
0.968332
0.968282
0.968363
0.968533
0.968735
0.96892
0.969052
0.969125
0.969154
0.969155
0.969127
0.969054
0.968922
0.968738
0.968535
0.968367
0.968286
0.968335
0.968524
0.96883
0.969192
0.969554
0.969818
0.969995
0.970026
0.969854
0.969598
0.969243
0.968882
0.968574
0.968381
0.968328
0.968407
0.968574
0.968773
0.968951
0.969073
0.969138
0.969162
0.969162
0.969139
0.969075
0.968953
0.968776
0.968578
0.968411
0.968332
0.968384
0.968577
0.968884
0.969244
0.9696
0.969856
0.970028
0.969982
0.969816
0.969572
0.969227
0.968875
0.968568
0.968372
0.968315
0.96839
0.968553
0.968746
0.968914
0.969025
0.96908
0.969097
0.969098
0.969081
0.969027
0.968916
0.968749
0.968557
0.968394
0.968319
0.968375
0.968569
0.968876
0.969228
0.969572
0.969817
0.969983
0.96988
0.969718
0.969485
0.969153
0.96881
0.968509
0.968314
0.968254
0.968325
0.968481
0.968665
0.968821
0.968921
0.968965
0.968977
0.968977
0.968966
0.968922
0.968824
0.968668
0.968484
0.968328
0.968258
0.968316
0.96851
0.968811
0.969153
0.969485
0.969718
0.96988
0.969738
0.969579
0.969354
0.969031
0.968699
0.968405
0.968216
0.968157
0.968225
0.968374
0.968549
0.968696
0.968786
0.968822
0.968829
0.96883
0.968823
0.968787
0.968698
0.968552
0.968378
0.968228
0.96816
0.968218
0.968406
0.968699
0.96903
0.969353
0.969578
0.969737
0.969572
0.969412
0.969191
0.968875
0.968552
0.968269
0.968088
0.968034
0.968103
0.96825
0.968421
0.968564
0.96865
0.968684
0.968691
0.968691
0.968685
0.968651
0.968566
0.968424
0.968253
0.968105
0.968036
0.968089
0.968269
0.968552
0.968874
0.96919
0.96941
0.96957
0.969394
0.969233
0.969015
0.968703
0.968388
0.968113
0.967942
0.967896
0.967969
0.96812
0.968293
0.968439
0.968529
0.968567
0.968575