# vtk DataFile Version 3.0
Grid data
ASCII
DATASET STRUCTURED_POINTS
DIMENSIONS 30 300 1
ORIGIN 0 0 0
SPACING 0.00833333 0.00333333 1
POINT_DATA 9000
SCALARS rho double
LOOKUP_TABLE default
0.967369
0.967384
0.967417
0.967469
0.967536
0.967601
0.96765
0.967682
0.967702
0.967718
0.967732
0.967745
0.967756
0.967764
0.967768
0.967768
0.967764
0.967756
0.967745
0.967732
0.967718
0.967702
0.967681
0.96765
0.9676
0.967535
0.967468
0.967416
0.967385
0.967371
0.96641
0.966439
0.9665
0.966595
0.966713
0.966823
0.9669
0.966942
0.966962
0.966976
0.966991
0.967009
0.967028
0.967043
0.967051
0.967051
0.967043
0.967029
0.96701
0.966992
0.966976
0.966962
0.966941
0.966899
0.966822
0.966713
0.966596
0.966502
0.966442
0.966415
0.966592
0.96663
0.966709
0.966825
0.966962
0.967085
0.967171
0.967216
0.967236
0.967254
0.96728
0.967314
0.96735
0.967378
0.967392
0.967393
0.967378
0.967351
0.967315
0.96728
0.967254
0.967235
0.967214
0.967168
0.967083
0.966961
0.966827
0.966712
0.966635
0.966599
0.967269
0.967311
0.967395
0.967511
0.967636
0.967743
0.967814
0.967849
0.967866
0.967884
0.967916
0.967959
0.968003
0.968036
0.968053
0.968054
0.968037
0.968004
0.96796
0.967916
0.967883
0.967864
0.967846
0.967809
0.967739
0.967634
0.967512
0.9674
0.967319
0.967278
0.968121
0.968162
0.96824
0.968341
0.968441
0.968519
0.968566
0.968586
0.968593
0.968602
0.968623
0.968656
0.96869
0.968716
0.968729
0.968729
0.968717
0.968692
0.968657
0.968624
0.968601
0.96859
0.968581
0.968561
0.968514
0.968439
0.968342
0.968246
0.968171
0.968131
0.968853
0.968891
0.968957
0.969039
0.969115
0.96917
0.9692
0.969209
0.969207
0.969202
0.969204
0.969214
0.969226
0.969234
0.969238
0.969238
0.969235
0.969227
0.969215
0.969205
0.969201
0.969204
0.969205
0.969195
0.969165
0.969113
0.96904
0.968963
0.968899
0.968863
0.969338
0.969371
0.969425
0.96949
0.96955
0.969594
0.969618
0.969622
0.969613
0.969596
0.969578
0.969565
0.969556
0.969548
0.969542
0.969542
0.969549
0.969557
0.969567
0.969579
0.969595
0.96961
0.969619
0.969613
0.96959
0.969548
0.969491
0.96943
0.969378
0.969346
0.969537
0.969566
0.969612
0.969667
0.969721
0.969761
0.969784
0.969788
0.969773
0.969747
0.969716
0.969689
0.969667
0.969649
0.969639
0.969639
0.96965
0.969668
0.96969
0.969717
0.969746
0.969771
0.969785
0.969781
0.969758
0.969719
0.969668
0.969615
0.96957
0.969542
0.969518
0.969546
0.96959
0.969644
0.969697
0.969737
0.96976
0.969761
0.969741
0.969706
0.969666
0.969631
0.969604
0.969586
0.969576
0.969576
0.969587
0.969606
0.969632
0.969667
0.969706
0.96974
0.96976
0.969758
0.969736
0.969696
0.969645
0.969592
0.969549
0.969521
0.969373
0.969403
0.96945
0.969506
0.969561
0.969602
0.969623
0.96962
0.969593
0.969548
0.9695
0.969461
0.969437
0.969425
0.969421
0.969421
0.969426
0.969438
0.969462
0.9695
0.969548
0.969592
0.969619
0.969622
0.969601
0.96956
0.969507
0.969451
0.969405
0.969375
0.969191
0.969223
0.969273
0.969333
0.969388
0.969428
0.969446
0.969435
0.969397
0.969342
0.96929
0.969254
0.969237
0.969235
0.969238
0.969238
0.969236
0.969239
0.969255
0.96929
0.969342
0.969397
0.969435
0.969445
0.969428
0.969388
0.969333
0.969274
0.969224
0.969193
0.969027
0.969061
0.969112
0.969173
0.969226
0.969261
0.969271
0.969248
0.969198
0.969137
0.969086
0.969059
0.969052
0.969058
0.969064
0.969064
0.969059
0.969054
0.96906
0.969087
0.969137
0.969197
0.969247
0.96927
0.969261
0.969226
0.969173
0.969113
0.969062
0.969029
0.968908
0.968941
0.968992
0.969049
0.969097
0.969123
0.96912
0.969082
0.969022
0.968961
0.96892
0.968902
0.9689
0.968906
0.96891
0.96891
0.968906
0.968902
0.968904
0.968921
0.968962
0.969022
0.969082
0.969119
0.969123
0.969097
0.96905
0.968992
0.968943
0.968909
0.968832
0.968865
0.968911
0.968963
0.969002
0.969017
0.968998
0.968947
0.968882
0.968826
0.968793
0.968778
0.968774
0.968773
0.968773
0.968773
0.968774
0.968775
0.96878
0.968795
0.968828
0.968882
0.968946
0.968997
0.969016
0.969002
0.968963
0.968912
0.968865
0.968833
0.968785
0.968817
0.968859
0.968904
0.968933
0.968934
0.968901
0.96884
0.968774
0.968722
0.968688
0.968667
0.968655
0.968649
0.968646
0.968647
0.968649
0.968656
0.968668
0.968689
0.968723
0.968775
0.968841
0.968901
0.968934
0.968933
0.968904
0.968859
0.968817
0.968786
0.968753
0.968782
0.968819
0.968856
0.968875
0.968864
0.968818
0.968751
0.968681
0.968623
0.968578
0.968546
0.968529
0.968523
0.968523
0.968523
0.968523
0.968529
0.968547
0.968579
0.968624
0.968683
0.968752
0.968819
0.968864
0.968876
0.968857
0.968819
0.968782
0.968753
0.96872
0.968747
0.96878
0.968809
0.968817
0.968793
0.968736
0.96866
0.96858
0.968507
0.968447
0.968408
0.968391
0.968392
0.968397
0.968397
0.968392
0.968391
0.968408
0.968448
0.968508
0.968582
0.968662
0.968737
0.968794
0.968818
0.96881
0.96878
0.968747
0.96872
0.968681
0.968706
0.968733
0.968755
0.968751
0.968714
0.968645
0.968556
0.968459
0.968368
0.968296
0.968255
0.968246
0.968256
0.968267
0.968267
0.968256
0.968246
0.968256
0.968297
0.968369
0.96846
0.968557
0.968646
0.968715
0.968752
0.968755
0.968733
0.968706
0.96868
0.968633
0.968656
0.968679
0.968691
0.968675
0.968623
0.96854
0.968434
0.968319
0.968214
0.968136
0.968099
0.968098
0.968117
0.968133
0.968133
0.968117
0.968098
0.968099
0.968137
0.968215
0.96832
0.968435
0.968541
0.968624
0.968675
0.968691
0.968679
0.968656
0.968633
0.968579
0.9686
0.968618
0.96862
0.968591
0.968524
0.968424
0.968301
0.968172
0.968058
0.967979
0.967946
0.967953
0.967978
0.967998
0.967998
0.967978
0.967953
0.967947
0.96798
0.968059
0.968173
0.968302
0.968425
0.968525
0.968592
0.968621
0.968618
0.9686
0.968579
0.968523
0.968542
0.968555
0.968547
0.968504
0.968422
0.968307
0.968169
0.968029
0.96791
0.967832
0.967802
0.967813
0.967843
0.967866
0.967866
0.967843
0.967813
0.967803
0.967832
0.967911
0.96803
0.96817
0.968308
0.968423
0.968505
0.968548
0.968555
0.968542
0.968523
0.968468
0.968484
0.968492
0.968475
0.96842
0.968324
0.968194
0.968045
0.967897
0.967775
0.967696
0.967668
0.967682
0.967714
0.967738
0.967738
0.967714
0.967682
0.967669
0.967697
0.967776
0.967898
0.968046
0.968195
0.968325
0.968421
0.968476
0.968493
0.968484
0.968468
0.96842
0.968432
0.968434
0.968408
0.968341
0.968233
0.968091
0.967933
0.967779
0.967652
0.967572
0.967545
0.96756
0.967593
0.967619
0.967618
0.967593
0.96756
0.967545
0.967573
0.967653
0.96778
0.967934
0.968093
0.968234
0.968342
0.968409
0.968435
0.968432
0.96842
0.968383
0.968389
0.968383
0.968348
0.968271
0.968153
0.968001
0.967834
0.967673
0.967542
0.967459
0.967431
0.967447
0.967481
0.967507
0.967507
0.967481
0.967447
0.967432
0.96746
0.967543
0.967675
0.967836
0.968003
0.968154
0.968273
0.968349
0.968384
0.96839
0.968383
0.968361
0.96836
0.968343
0.968297
0.968211
0.968084
0.967924
0.967748
0.96758
0.967443
0.967357
0.967328
0.967344
0.967378
0.967404
0.967404
0.967378
0.967344
0.967328
0.967358
0.967444
0.967581
0.96775
0.967925
0.968085
0.968212
0.968298
0.968344
0.968361
0.968362
0.968358
0.968347
0.968317
0.968258
0.968162
0.968026
0.967857
0.967672
0.967495
0.967353
0.967264
0.967235
0.967251
0.967286
0.967312
0.967312
0.967286
0.967251
0.967235
0.967265
0.967354
0.967496
0.967673
0.967858
0.968027
0.968163
0.968259
0.968318
0.968348
0.968359
0.968369
0.968351
0.968308
0.968235
0.968126
0.967979
0.967798
0.967603
0.967417
0.96727
0.967179
0.96715
0.967168
0.967206
0.967233
0.967233
0.967206
0.967169
0.967151
0.96718
0.96727
0.967419
0.967604
0.9678
0.967981
0.968128
0.968237
0.96831
0.968352
0.96837
0.96839
0.968366
0.968316
0.96823
0.968107
0.967944
0.967749
0.967539
0.967344
0.967191
0.9671
0.967075
0.967097
0.967137
0.967167
0.967167
0.967138
0.967097
0.967075
0.967101
0.967192
0.967345
0.967541
0.96775
0.967946
0.968109
0.968232
0.968317
0.968368
0.968391
0.96841
0.968387
0.968335
0.968241
0.968104
0.967923
0.967707
0.96748
0.967273
0.967116
0.967026
0.967006
0.967034
0.96708
0.967113
0.967113
0.96708
0.967035
0.967006
0.967027
0.967117
0.967275
0.967482
0.967709
0.967924
0.968106
0.968243
0.968336
0.968388
0.968411
0.968424
0.968404
0.968356
0.96826
0.968112
0.967911
0.967672
0.967426
0.967205
0.967043
0.966956
0.966942
0.966978
0.967031
0.967067
0.967067
0.967031
0.966979
0.966943
0.966957
0.967044
0.967207
0.967427
0.967674
0.967913
0.968114
0.968262
0.968358
0.968406
0.968425
0.968426
0.968412
0.968371
0.968278
0.968121
0.967902
0.967641
0.967373
0.967139
0.966972
0.966888
0.966881
0.966926
0.966985
0.967024
0.967024
0.966985
0.966926
0.966882
0.966889
0.966973
0.967141
0.967375
0.967642
0.967904
0.968123
0.968279
0.968373
0.968413
0.968427
0.968415
0.968406
0.968374
0.968283
0.968121
0.967887
0.967606
0.967319
0.967073
0.966902
0.96682
0.96682
0.966872
0.966938
0.966981
0.966981
0.966938
0.966873
0.966821
0.966821
0.966903
0.967074
0.967321
0.967607
0.967888
0.968123
0.968285
0.968375
0.968407
0.968417
0.968394
0.968388
0.968362
0.968272
0.968105
0.967859
0.967561
0.96726
0.967004
0.96683
0.966751
0.966757
0.966816
0.966886
0.966932
0.966932
0.966886
0.966816
0.966758
0.966752
0.966831
0.967005
0.967262
0.967563
0.96786
0.968107
0.968274
0.968363
0.968389
0.968395
0.968364
0.96836
0.968336
0.968246
0.968073
0.967816
0.967506
0.967194
0.966931
0.966756
0.966679
0.96669
0.966753
0.966827
0.966875
0.966875
0.966827
0.966754
0.966691
0.96668
0.966757
0.966933
0.967196
0.967507
0.967817
0.968074
0.968247
0.968338
0.968362
0.968366
0.968333
0.968329
0.968304
0.968208
0.968028
0.967761
0.967442
0.967123
0.966856
0.966679
0.966604
0.966618
0.966685
0.966761
0.966811
0.966811
0.966762
0.966686
0.966619
0.966605
0.96668
0.966857
0.967124
0.967444
0.967762
0.968029
0.968209
0.968305
0.96833
0.968334
0.968305
0.9683
0.96827
0.968167
0.967978
0.967702
0.967376
0.967051
0.966781
0.966603
0.966529
0.966545
0.966614
0.966693
0.966743
0.966743
0.966694
0.966615
0.966546
0.96653
0.966604
0.966782
0.967052
0.967377
0.967703
0.967979
0.968169
0.968272
0.968301
0.968307
0.968289
0.96828
0.968244
0.968131
0.967932
0.967647
0.967314
0.966984
0.966711
0.966532
0.966458
0.966476
0.966547
0.966628
0.966679
0.966679
0.966628
0.966548
0.966477
0.966459
0.966533
0.966712
0.966985
0.967315
0.967648
0.967933
0.968132
0.968245
0.968281
0.96829
0.968291
0.968276
0.968231
0.968107
0.967897
0.967603
0.967262
0.966927
0.96665
0.966469
0.966396
0.966416
0.96649
0.966573
0.966625
0.966626
0.966573
0.966491
0.966417
0.966397
0.96647
0.966651
0.966928
0.967263
0.967603
0.967898
0.968108
0.968232
0.968277
0.968292
0.968314
0.968293
0.968238
0.968101
0.967878
0.967573
0.967224
0.966883
0.966602
0.966419
0.966347
0.966369
0.966448
0.966534
0.966589
0.966589
0.966535
0.966448
0.96637
0.966347
0.96642
0.966602
0.966883
0.967224
0.967574
0.967879
0.968102
0.968239
0.968294
0.968315
0.968361
0.968332
0.968266
0.968115
0.967879
0.967561
0.967202
0.966853
0.966568
0.966384
0.966313
0.966341
0.966424
0.966516
0.966574
0.966574
0.966517
0.966425
0.966341
0.966314
0.966384
0.966568
0.966854
0.967202
0.967562
0.967879
0.968116
0.968267
0.968333
0.968362
0.968431
0.968395
0.968317
0.968152
0.967899
0.967568
0.967197
0.96684
0.966549
0.966365
0.966298
0.966331
0.966422
0.96652
0.966582
0.966582
0.966521
0.966423
0.966332
0.966299
0.966365
0.96655
0.96684
0.967197
0.967569
0.9679
0.968152
0.968318
0.968396
0.968432
0.968523
0.968478
0.968389
0.968208
0.96794
0.967594
0.96721
0.966843
0.966547
0.966363
0.966301
0.966342
0.966441
0.966546
0.966611
0.966611
0.966546
0.966442
0.966343
0.966302
0.966364
0.966547
0.966843
0.96721
0.967594
0.96794
0.968209
0.96839
0.968479
0.968524
0.968634
0.968581
0.96848
0.968284
0.967999
0.967638
0.96724
0.966863
0.966563
0.966379
0.966323
0.966372
0.966479
0.966591
0.96666
0.96666
0.966591
0.96648
0.966372
0.966323
0.96638
0.966563
0.966863
0.96724
0.967637
0.967999
0.968285
0.968481
0.968582
0.968636
0.968763
0.968702
0.968589
0.968378
0.968077
0.9677
0.96729
0.966904
0.966599
0.966415
0.966362
0.966418
0.966534
0.966651
0.966724
0.966724
0.966652
0.966534
0.966419
0.966363
0.966415
0.966598
0.966903
0.967289
0.967699
0.968076
0.968378
0.96859
0.968703
0.968764
0.968907
0.968838
0.968714
0.968488
0.968172
0.967782
0.967361
0.966967
0.966658
0.966473
0.966423
0.966483
0.966604
0.966726
0.966801
0.966801
0.966726
0.966604
0.966483
0.966423
0.966473
0.966657
0.966966
0.96736
0.967781
0.968171
0.968488
0.968715
0.968839
0.968908
0.969065
0.968989
0.968854
0.968615
0.968286
0.967885
0.967456
0.967056
0.966744
0.966559
0.966509
0.96657
0.966692
0.966817
0.966893
0.966893
0.966817
0.966692
0.96657
0.966509
0.966558
0.966743
0.967055
0.967454
0.967884
0.968285
0.968615
0.968855
0.96899
0.969066
0.969235
0.969154
0.96901
0.968759
0.968419
0.968009
0.967574
0.967172
0.96686
0.966675
0.966625
0.966686
0.966807
0.96693
0.967005
0.967005
0.96693
0.966807
0.966686
0.966625
0.966674
0.966859
0.967171
0.967573
0.968008
0.968418
0.968759
0.96901
0.969155
0.969237
0.969417
0.969331
0.96918
0.96892
0.96857
0.968153
0.967714
0.967313
0.967003
0.966822
0.966775
0.966835
0.966954
0.967074
0.967147
0.967147
0.967074
0.966953
0.966835
0.966774
0.966822
0.967002
0.967312
0.967713
0.968152
0.968569
0.96892
0.969181
0.969332
0.969419
0.969612
0.969521
0.969366
0.969097
0.968738
0.968314
0.967873
0.967474
0.96717
0.966997
0.966956
0.967018
0.967135
0.967253
0.967324
0.967324
0.967252
0.967135
0.967018
0.966955
0.966996
0.967169
0.967473
0.967871
0.968313
0.968737
0.969096
0.969366
0.969523
0.969613
0.96982
0.969725
0.969564
0.969287
0.96892
0.968489
0.968045
0.967649
0.967354
0.967192
0.967161
0.967229
0.967348
0.967464
0.967533
0.967533
0.967463
0.967348
0.967229
0.96716
0.967191
0.967353
0.967648
0.968044
0.968488
0.968919
0.969287
0.969565
0.969726
0.969821
0.970043
0.969941
0.969773
0.969487
0.96911
0.968672
0.968226
0.967834
0.967549
0.9674
0.967382
0.96746
0.967583
0.967699
0.967768
0.967768
0.967699
0.967582
0.967459
0.967381
0.967399
0.967547
0.967833
0.968225
0.968671
0.969109
0.969487
0.969774
0.969943
0.970045
0.970281
0.970169
0.969989
0.969689
0.969301
0.968857
0.968411
0.968024
0.96775
0.967616
0.967612
0.967702
0.967831
0.96795
0.968019
0.968019
0.96795
0.967831
0.967701
0.967612
0.967615
0.967748
0.968023
0.968409
0.968856
0.9693
0.969689
0.969989
0.97017
0.970283
0.97053
0.970404
0.970206
0.969887
0.969485
0.969036
0.968591
0.968214
0.967954
0.967837
0.96785
0.967952
0.968088
0.96821
0.96828
0.96828
0.96821
0.968088
0.967951
0.967849
0.967836
0.967953
0.968212
0.96859
0.969035
0.969485
0.969887
0.970206
0.970405
0.970532
0.970782
0.97064
0.970418
0.970075
0.969655
0.969199
0.968759
0.968396
0.968156
0.96806
0.968092
0.968206
0.968351
0.968476
0.968548
0.968548
0.968476
0.96835
0.968206
0.968091
0.968059
0.968155
0.968395
0.968758
0.969198
0.969654
0.970075
0.970418
0.970641
0.970783
0.971025
0.970866
0.970619
0.970247
0.969805
0.969342
0.968909
0.968565
0.96835
0.96828
0.968332
0.968462
0.968615
0.968744
0.968818
0.968817
0.968744
0.968614
0.968461
0.968332
0.968279
0.968349
0.968564
0.968908
0.969341
0.969805
0.970247
0.970619
0.970867
0.971027
0.971249
0.971074
0.970803
0.970401
0.969935
0.969462
0.969037
0.968715
0.968529
0.968488
0.968564
0.96871
0.968872
0.969006
0.969081
0.969081
0.969006
0.968872
0.968709
0.968563
0.968487
0.968528
0.968715
0.969037
0.969462
0.969935
0.970402
0.970803
0.971075
0.971251
0.971446
0.971257
0.970965
0.970536
0.970047
0.969563
0.969146
0.968846
0.968689
0.968678
0.968778
0.968939
0.969111
0.969249
0.969325
0.969325
0.969249
0.96911
0.968939
0.968777
0.968677
0.968689
0.968845
0.969145
0.969563
0.970046
0.970536
0.970965
0.971258
0.971447
0.97161
0.971411
0.971102
0.970651
0.970141
0.969649
0.969238
0.968959
0.968831
0.968847
0.968968
0.969143
0.969322
0.969464
0.969542
0.969542
0.969464
0.969322
0.969143
0.968968
0.968847
0.968831
0.968959
0.969238
0.969649
0.970141
0.970651
0.971102
0.971412
0.971611
0.971743
0.971535
0.971213
0.970746
0.970221
0.969724
0.969321
0.969061
0.968957
0.968996
0.969134
0.969318
0.969502
0.969647
0.969726
0.969726
0.969647
0.969502
0.969318
0.969133
0.968996
0.968957
0.969061
0.96932
0.969723
0.970221
0.970746
0.971214
0.971536
0.971744
0.971848
0.971633
0.971301
0.970822
0.970288
0.96979
0.969396
0.969154
0.969071
0.969128
0.969276
0.969467
0.969653
0.9698
0.96988
0.96988
0.9698
0.969654
0.969467
0.969276
0.969127
0.969071
0.969154
0.969396
0.969789
0.970288
0.970822
0.971302
0.971634
0.971849
0.971932
0.971711
0.971369
0.970881
0.970343
0.969848
0.969466
0.96924
0.969174
0.969243
0.969398
0.969591
0.969779
0.969927
0.970009
0.970009
0.969927
0.969779
0.969591
0.969398
0.969243
0.969174
0.96924
0.969465
0.969848
0.970343
0.970881
0.97137
0.971711
0.971933
0.972001
0.971773
0.971421
0.970926
0.970387
0.9699
0.96953
0.969319
0.969266
0.969342
0.969499
0.969692
0.969879
0.970029
0.970111
0.970111
0.970029
0.96988
0.969692
0.9695
0.969342
0.969266
0.969319
0.96953
0.969899
0.970387
0.970926
0.971422
0.971774
0.972002
0.972059
0.971825
0.971461
0.970959
0.970421
0.969944
0.969588
0.969392
0.969348
0.969428
0.969584
0.969774
0.969959
0.970107
0.970189
0.97019
0.970107
0.969959
0.969774
0.969585
0.969428
0.969348
0.969391
0.969588
0.969943
0.970421
0.970959
0.971462
0.971825
0.972059
0.972108
0.971868
0.971491
0.97098
0.970445
0.969979
0.969639
0.969457
0.969422
0.969505
0.969658
0.969842
0.970022
0.970166
0.970247
0.970247
0.970166
0.970022
0.969843
0.969659
0.969505
0.969422
0.969456
0.969639
0.969979
0.970445
0.970981
0.971491
0.971868
0.972108
0.972148
0.971902
0.971511
0.970992
0.970459
0.970005
0.969682
0.969514
0.96949
0.969576
0.969728
0.969906
0.970078
0.970215
0.970291
0.970291
0.970215
0.970078
0.969906
0.969728
0.969576
0.96949
0.969514
0.969682
0.970005
0.970459
0.970993
0.971511
0.971902
0.972148
0.972179
0.971928
0.971523
0.970996
0.970463
0.97002
0.969713
0.969563
0.969551
0.969644
0.969795
0.969968
0.970132
0.970261
0.970332
0.970332
0.970261
0.970133
0.969969
0.969795
0.969644
0.969551
0.969563
0.969714
0.970021
0.970464
0.970996
0.971523
0.971928
0.972179
0.9722
0.971945
0.971529
0.970994
0.970461
0.970027
0.969735
0.969601
0.969604
0.969706
0.96986
0.97003
0.970186
0.970306
0.970371
0.970371
0.970306
0.970186
0.97003
0.96986
0.969706
0.969605
0.969602
0.969735
0.970027
0.970461
0.970994
0.971529
0.971945
0.972199
0.972211
0.971956
0.971532
0.970991
0.970456
0.970028
0.969749
0.969631
0.969649
0.96976
0.969917
0.970084
0.970233
0.970344
0.970403
0.970404
0.970344
0.970233
0.970084
0.969917
0.96976
0.969649
0.969632
0.969749
0.970028
0.970456
0.97099
0.971531
0.971955
0.972211
0.972217
0.971962
0.971534
0.97099
0.970454
0.970029
0.969759
0.969655
0.969686
0.969805
0.969963
0.970125
0.970265
0.970367
0.97042
0.97042
0.970367
0.970265
0.970125
0.969964
0.969805
0.969686
0.969655
0.969759
0.970029
0.970454
0.97099
0.971534
0.971961
0.972216
0.972218
0.971966
0.97154
0.970997
0.970461
0.970036
0.969771
0.969675
0.969715
0.96984
0.969997
0.97015
0.970278
0.970368
0.970415
0.970415
0.970369
0.970279
0.970151
0.969998
0.969841
0.969716
0.969675
0.969771
0.970036
0.97046
0.970997
0.971539
0.971966
0.972218
0.972218
0.971971
0.971549
0.971012
0.970478
0.970054
0.969788
0.969696
0.96974
0.969866
0.970019
0.970161
0.970275
0.970351
0.97039
0.97039
0.970352
0.970275
0.970162
0.970019
0.969867
0.96974
0.969696
0.969788
0.970053
0.970477
0.971011
0.971549
0.971971
0.972218
0.972218
0.971977
0.971562
0.971033
0.970505
0.970082
0.969815
0.969719
0.96976
0.969883
0.970028
0.97016
0.970259
0.970323
0.970353
0.970353
0.970323
0.97026
0.97016
0.970029
0.969883
0.96976
0.969718
0.969814
0.970081
0.970504
0.971032
0.971562
0.971977
0.972218
0.972216
0.971982
0.971576
0.971057
0.970538
0.970119
0.969848
0.969744
0.969776
0.969888
0.970024
0.970146
0.970235
0.970289
0.970314
0.970314
0.970289
0.970235
0.970146
0.970024
0.969888
0.969775
0.969743
0.969847
0.970118
0.970538
0.971057
0.971576
0.971982
0.972216
0.972211
0.971985
0.971587
0.971081
0.970573
0.970159
0.969886
0.969772
0.969787
0.969882
0.970004
0.970116
0.9702
0.970252
0.970275
0.970275
0.970252
0.9702
0.970116
0.970003
0.969881
0.969785
0.96977
0.969884
0.970158
0.970572
0.97108
0.971587
0.971985
0.972212
0.972202
0.971983
0.971594
0.9711
0.970604
0.970198
0.969924
0.969798
0.969793
0.969865
0.969968
0.97007
0.970152
0.970207
0.970233
0.970233
0.970207
0.970153
0.97007
0.969968
0.969864
0.969791
0.969796
0.969922
0.970196
0.970603
0.971099
0.971595
0.971984
0.972203
0.972187
0.971976
0.971595
0.971112
0.970627
0.970229
0.969956
0.96982
0.969795
0.969842
0.969922
0.970011
0.97009
0.970148
0.970179
0.970179
0.970148
0.97009
0.97001
0.969921
0.96984
0.969793
0.969818
0.969954
0.970227
0.970626
0.971112
0.971596
0.971977
0.972188
0.972165
0.971961
0.971589
0.971116
0.970641
0.97025
0.969979
0.969836
0.969793
0.969816
0.969872
0.969943
0.970014
0.970072
0.970106
0.970105
0.970072
0.970013
0.969941
0.96987
0.969813
0.96979
0.969833
0.969976
0.970248
0.97064
0.971115
0.971589
0.971962
0.972166
0.972136
0.971938
0.971574
0.97111
0.970644
0.970259
0.969988
0.96984
0.969785
0.969788
0.969823
0.969873
0.96993
0.969981
0.970011
0.970011
0.96998
0.969929
0.969871
0.96982
0.969785
0.969781
0.969837
0.969986
0.970257
0.970643
0.97111
0.971574
0.97194
0.972137
0.972099
0.971907
0.97155
0.971095
0.970636
0.970254
0.969984
0.969831
0.969767
0.969757
0.969774
0.969806
0.969844
0.96988
0.969902
0.969902
0.969879
0.969842
0.969803
0.969771
0.969753
0.969763
0.969828
0.969981
0.970252
0.970635
0.971095
0.971551
0.971909
0.972101
0.972058
0.97187
0.971519
0.971071
0.970618
0.970238
0.969965
0.969807
0.969735
0.969717
0.969723
0.96974
0.96976
0.969778
0.969789
0.969789
0.969776
0.969757
0.969736
0.969719
0.969713
0.969732
0.969804
0.969963
0.970236
0.970617
0.971071
0.97152
0.971872
0.97206
0.972012
0.971827
0.971481
0.971039
0.970591
0.970211
0.969935
0.969769
0.96969
0.969664
0.969664
0.96967
0.969676
0.96968
0.969681
0.96968
0.969677
0.969673
0.969666
0.96966
0.96966
0.969686
0.969766
0.969932
0.970209
0.97059
0.971039
0.971482
0.971829
0.972014
0.971964
0.971782
0.971441
0.971004
0.97056
0.970179
0.969897
0.969721
0.969631
0.969597
0.969591
0.969591
0.969589
0.969584
0.969578
0.969578
0.969581
0.969586
0.969588
0.969587
0.969593
0.969627
0.969717
0.969894
0.970177
0.970559
0.971004
0.971442
0.971784
0.971967
0.971917
0.971736
0.9714
0.970969
0.970528
0.970145
0.969855
0.969666
0.969562
0.969516
0.969502
0.969499
0.969494
0.969485
0.969477
0.969477
0.969483
0.969491
0.969495
0.969498
0.969512
0.969557
0.969662
0.969852
0.970143
0.970527
0.970969
0.971402
0.971738
0.971919
0.971873
0.971694
0.971364
0.970938
0.9705
0.970114
0.969813
0.969608
0.969485
0.969423
0.969398
0.96939
0.969384
0.969376
0.969369
0.969369
0.969374
0.969381
0.969386
0.969394
0.969418
0.96948
0.969604
0.96981
0.970112
0.970499
0.970938
0.971365
0.971696
0.971875
0.971834
0.971658
0.971336
0.970915
0.97048
0.970089
0.969776
0.96955
0.969404
0.969321
0.969282
0.969266
0.969259
0.969253
0.969249
0.969248
0.969251
0.969257
0.969263
0.969278
0.969316
0.969399
0.969546
0.969773
0.970087
0.970479
0.970916
0.971337
0.971659
0.971836
0.971805
0.971631
0.971318
0.970904
0.970471
0.970074
0.969747
0.969497
0.969324
0.969216
0.969159
0.969133
0.969122
0.969116
0.969113
0.969113
0.969115
0.969119
0.969129
0.969154
0.969211
0.96932
0.969493
0.969743
0.970072
0.97047
0.970904
0.971319
0.971633
0.971807
0.971789
0.971618
0.971314
0.970906
0.970474
0.97007
0.969726
0.969452
0.969249
0.969114
0.969035
0.968995
0.968978
0.96897
0.968966
0.968966
0.968968
0.968975
0.968992
0.96903
0.969109
0.969245
0.969448
0.969723
0.970068
0.970473
0.970906
0.971315
0.971619
0.97179
0.97179
0.97162
0.971326
0.970922
0.970491
0.970077
0.969716
0.969416
0.969185
0.96902
0.968918
0.968862
0.968833
0.968819
0.968812
0.968812
0.968817
0.96883
0.968858
0.968914
0.969016
0.96918
0.969412
0.969714
0.970076
0.97049
0.970923
0.971328
0.971622
0.971791
0.971812
0.971642
0.971357
0.970955
0.970521
0.970097
0.969718
0.969393
0.969134
0.968942
0.968814
0.968736
0.968692
0.968666
0.968655
0.968654
0.968665
0.968689
0.968733
0.96881
0.968938
0.96913
0.96939
0.969716
0.970096
0.970521
0.970956
0.971358
0.971644
0.971813
0.971856
0.971685
0.971407
0.971005
0.970567
0.97013
0.969734
0.969386
0.969101
0.968882
0.968726
0.968622
0.968555
0.968515
0.968495
0.968495
0.968513
0.968552
0.968618
0.968722
0.968877
0.969097
0.969383
0.969732
0.970129
0.970567
0.971006
0.971408
0.971687
0.971858
0.971926
0.97175
0.971477
0.971072
0.970628
0.970177
0.969764
0.969395
0.969086
0.968839
0.968653
0.968517
0.968422
0.968363
0.968334
0.968333
0.968361
0.968419
0.968513
0.968649
0.968835
0.969083
0.969393
0.969763
0.970177
0.970629
0.971074
0.971478
0.971751
0.971927
0.972018
0.971835
0.971567
0.971159
0.970708
0.970242
0.969811
0.96942
0.969088
0.968812
0.968592
0.968419
0.968292
0.96821
0.96817
0.96817
0.968208
0.968288
0.968415
0.968588
0.968809
0.969085
0.969418
0.96981
0.970242
0.970709
0.971161
0.971569
0.971836
0.972019
0.972132
0.971939
0.971677
0.971266
0.970807
0.970324
0.969873
0.969459
0.969101
0.968795
0.968537
0.968324
0.968162
0.968055
0.968004
0.968003
0.968053
0.968158
0.96832
0.968533
0.968791
0.969099
0.969458
0.969874
0.970326
0.970809
0.971268
0.971679
0.97194
0.972134
0.972268
0.972062
0.971807
0.971392
0.970926
0.970424
0.96995
0.969509
0.969121
0.96878
0.968484
0.96823
0.968031
0.967898
0.967834
0.967833
0.967896
0.968027
0.968226
0.96848
0.968778
0.96912
0.969508
0.969951
0.970426
0.970928
0.971394
0.971808
0.972063
0.97227
0.97243
0.972205
0.971957
0.971539
0.971063
0.97054
0.970038
0.969564
0.969142
0.968763
0.968427
0.968132
0.967898
0.967738
0.96766
0.967659
0.967736
0.967894
0.968128
0.968423
0.968761
0.969141
0.969564
0.97004
0.970542
0.971065
0.971541
0.971959
0.972206
0.972431
0.972624
0.972375
0.972131
0.971706
0.971217
0.970668
0.970133
0.969621
0.96916
0.968739
0.968362
0.968029
0.967759
0.967573
0.967478
0.967477
0.96757
0.967756
0.968025
0.968359
0.968737
0.969159
0.969622
0.970135
0.97067
0.971219
0.971708
0.972133
0.972376
0.972625
0.972859
0.972577
0.972332
0.971895
0.971386
0.970805
0.970233
0.969679
0.969173
0.968707
0.968288
0.967916
0.967612
0.967398
0.967287
0.967286
0.967395
0.967609
0.967912
0.968284
0.968706
0.969172
0.96968
0.970235
0.970807
0.971388
0.971897
0.972334
0.972578
0.972861
0.973141
0.972815
0.972562
0.972105
0.97157
0.970953
0.970339
0.969738
0.969183
0.968669
0.968203
0.967791
0.967453
0.96721
0.967083
0.967081
0.967207
0.967449
0.967787
0.9682
0.968667
0.969184
0.96974
0.970341
0.970955
0.971572
0.972107
0.972564
0.972817
0.973142
0.973468
0.973089
0.97282
0.972337
0.97177
0.971113
0.970454
0.969804
0.969196
0.968627
0.96811
0.967653
0.967278
0.967007
0.966863
0.966862
0.967004
0.967274
0.96765
0.968107
0.968626
0.969197
0.969806
0.970457
0.971115
0.971772
0.972339
0.972821
0.97309
0.973469
0.973832
0.97339
0.9731
0.972588
0.971988
0.971288
0.970582
0.96988
0.969216
0.968586
0.968011
0.967502
0.967086
0.966786
0.966627
0.966626
0.966784
0.967083
0.967499
0.968008
0.968585
0.969217
0.969883
0.970585
0.971291
0.97199
0.97259
0.973101
0.973391
0.973833
0.974223
0.973711
0.973398
0.972857
0.972223
0.971479
0.970725
0.969968
0.969242
0.968546
0.967905
0.967338
0.966877
0.966546