# vtk DataFile Version 3.0
Grid data
ASCII
DATASET STRUCTURED_POINTS
DIMENSIONS 30 300 1
ORIGIN 0 0 0
SPACING 0.00833333 0.00333333 1
POINT_DATA 9000
SCALARS rho double
LOOKUP_TABLE default
0.979716
0.979727
0.979748
0.979775
0.979805
0.979834
0.979861
0.979884
0.979902
0.979914
0.979922
0.979927
0.979929
0.979931
0.979931
0.979931
0.979931
0.979929
0.979927
0.979922
0.979914
0.979901
0.979883
0.97986
0.979833
0.979805
0.979776
0.97975
0.979729
0.979722
0.978774
0.97879
0.978825
0.978869
0.978918
0.978966
0.979012
0.979052
0.979086
0.979112
0.97913
0.979143
0.979151
0.979155
0.979157
0.979157
0.979155
0.979151
0.979143
0.97913
0.979111
0.979085
0.979051
0.97901
0.978965
0.978918
0.97887
0.978828
0.978794
0.978779
0.979069
0.979087
0.979128
0.979182
0.979243
0.979303
0.979359
0.979408
0.979448
0.979479
0.979502
0.97952
0.979534
0.979543
0.979547
0.979547
0.979543
0.979534
0.979521
0.979502
0.979477
0.979445
0.979405
0.979356
0.979301
0.979243
0.979184
0.979133
0.979093
0.979076
0.97999
0.980009
0.980052
0.980109
0.980174
0.980236
0.98029
0.980333
0.980365
0.98039
0.980411
0.98043
0.980446
0.980458
0.980464
0.980465
0.980458
0.980447
0.98043
0.98041
0.980388
0.980361
0.980328
0.980285
0.980232
0.980173
0.980112
0.980058
0.980017
0.98
0.981167
0.981184
0.981225
0.981279
0.981339
0.981395
0.981439
0.98147
0.981491
0.981508
0.981524
0.981542
0.98156
0.981574
0.981583
0.981583
0.981575
0.981561
0.981543
0.981523
0.981505
0.981486
0.981464
0.981433
0.98139
0.981339
0.981283
0.981233
0.981195
0.981178
0.982266
0.982281
0.982317
0.982363
0.982414
0.982459
0.982493
0.982513
0.982526
0.982537
0.982552
0.98257
0.982589
0.982605
0.982614
0.982614
0.982605
0.98259
0.98257
0.98255
0.982534
0.982521
0.982506
0.982486
0.982454
0.982413
0.982367
0.982326
0.982293
0.982278
0.983102
0.983114
0.983142
0.983176
0.983213
0.983246
0.98327
0.983285
0.983296
0.983308
0.983323
0.983343
0.983363
0.983379
0.983389
0.983389
0.98338
0.983364
0.983343
0.983322
0.983305
0.983291
0.983279
0.983263
0.983241
0.983213
0.98318
0.98315
0.983124
0.983113
0.983585
0.983592
0.983611
0.983631
0.983654
0.983674
0.983692
0.983706
0.983719
0.983734
0.983753
0.983774
0.983795
0.983812
0.983822
0.983822
0.983813
0.983795
0.983774
0.983752
0.983732
0.983715
0.9837
0.983686
0.983671
0.983654
0.983634
0.983617
0.983601
0.983594
0.983762
0.983766
0.983776
0.983785
0.983797
0.983809
0.983823
0.983838
0.983855
0.983874
0.983895
0.983918
0.983941
0.983959
0.98397
0.98397
0.98396
0.983941
0.983918
0.983894
0.983872
0.983852
0.983834
0.983819
0.983806
0.983796
0.983788
0.983781
0.983772
0.983769
0.98374
0.98374
0.983745
0.983748
0.983754
0.983763
0.983777
0.983794
0.983814
0.983836
0.98386
0.983886
0.983912
0.983933
0.983945
0.983945
0.983933
0.983912
0.983886
0.983859
0.983834
0.983812
0.983791
0.983774
0.983761
0.983753
0.983749
0.983748
0.983745
0.983744
0.983628
0.983627
0.983629
0.98363
0.983635
0.983645
0.983662
0.983682
0.983705
0.98373
0.983757
0.983787
0.983817
0.983842
0.983857
0.983857
0.983842
0.983817
0.983787
0.983757
0.983729
0.983704
0.98368
0.98366
0.983644
0.983635
0.983631
0.983631
0.98363
0.983631
0.983503
0.983501
0.983504
0.983506
0.983514
0.983527
0.983547
0.983571
0.983598
0.983626
0.983657
0.983691
0.983726
0.983755
0.983773
0.983773
0.983756
0.983726
0.983691
0.983656
0.983625
0.983596
0.98357
0.983546
0.983526
0.983514
0.983507
0.983506
0.983503
0.983505
0.983405
0.983404
0.983409
0.983414
0.983426
0.983444
0.983468
0.983495
0.983524
0.983556
0.983591
0.98363
0.98367
0.983703
0.983723
0.983723
0.983703
0.98367
0.98363
0.983591
0.983555
0.983523
0.983494
0.983467
0.983443
0.983426
0.983415
0.983411
0.983406
0.983408
0.983341
0.983341
0.983349
0.983358
0.983374
0.983396
0.983424
0.983454
0.983488
0.983523
0.983563
0.983605
0.983648
0.983684
0.983705
0.983705
0.983685
0.983649
0.983606
0.983562
0.983523
0.983487
0.983453
0.983423
0.983395
0.983374
0.983359
0.98335
0.983343
0.983343
0.983293
0.983295
0.983307
0.983321
0.983342
0.983368
0.983401
0.983436
0.983473
0.983513
0.983557
0.983603
0.983648
0.983684
0.983705
0.983706
0.983685
0.983648
0.983603
0.983557
0.983513
0.983473
0.983435
0.9834
0.983368
0.983342
0.983322
0.983308
0.983297
0.983295
0.983241
0.983246
0.983263
0.983282
0.983309
0.983341
0.983379
0.983421
0.983464
0.983509
0.983556
0.983604
0.98365
0.983686
0.983707
0.983707
0.983686
0.98365
0.983605
0.983556
0.983509
0.983463
0.98342
0.983379
0.983341
0.983309
0.983283
0.983264
0.983247
0.983243
0.98317
0.983178
0.983201
0.983227
0.983262
0.983302
0.983347
0.983396
0.983446
0.983497
0.983549
0.983598
0.983644
0.983679
0.983698
0.983698
0.983679
0.983644
0.983599
0.983549
0.983497
0.983446
0.983396
0.983347
0.983301
0.983262
0.983227
0.983202
0.983179
0.983172
0.983076
0.983087
0.983116
0.983151
0.983195
0.983245
0.9833
0.983357
0.983415
0.983472
0.983528
0.983579
0.983624
0.983658
0.983676
0.983676
0.983658
0.983624
0.98358
0.983528
0.983472
0.983415
0.983357
0.9833
0.983245
0.983195
0.983151
0.983117
0.983088
0.983077
0.982962
0.982977
0.983013
0.983058
0.983113
0.983174
0.98324
0.983307
0.983373
0.983436
0.983495
0.983548
0.983593
0.983626
0.983643
0.983643
0.983626
0.983593
0.983549
0.983495
0.983436
0.983373
0.983307
0.98324
0.983174
0.983113
0.983058
0.983014
0.982978
0.982963
0.982838
0.982857
0.9829
0.982955
0.983022
0.983096
0.983174
0.983251
0.983325
0.983393
0.983456
0.983511
0.983555
0.983586
0.983603
0.983603
0.983587
0.983555
0.983511
0.983456
0.983394
0.983325
0.983251
0.983174
0.983096
0.983023
0.982955
0.9829
0.982857
0.982838
0.982712
0.982734
0.982785
0.98285
0.98293
0.983018
0.983108
0.983195
0.983277
0.983351
0.983417
0.983473
0.983517
0.983547
0.983563
0.983563
0.983547
0.983517
0.983473
0.983417
0.983352
0.983278
0.983196
0.983108
0.983018
0.982931
0.98285
0.982785
0.982735
0.982712
0.982591
0.982617
0.982674
0.982749
0.982842
0.982943
0.983047
0.983145
0.983235
0.983315
0.983383
0.983439
0.983482
0.983512
0.983527
0.983527
0.983512
0.983482
0.983439
0.983383
0.983315
0.983236
0.983146
0.983047
0.982943
0.982843
0.98275
0.982675
0.982618
0.982592
0.982479
0.982509
0.982572
0.982657
0.982761
0.982875
0.982991
0.983101
0.9832
0.983285
0.983355
0.983411
0.983454
0.983483
0.983497
0.983497
0.983483
0.983454
0.983411
0.983355
0.983285
0.983201
0.983102
0.982992
0.982875
0.982762
0.982657
0.982573
0.982509
0.98248
0.982377
0.98241
0.98248
0.982573
0.982688
0.982813
0.982942
0.983063
0.983171
0.983261
0.983333
0.983389
0.983431
0.983459
0.983473
0.983473
0.983459
0.983431
0.983389
0.983333
0.983261
0.983171
0.983063
0.982942
0.982813
0.982688
0.982573
0.98248
0.982411
0.982377
0.982283
0.98232
0.982396
0.982497
0.982621
0.982756
0.982896
0.983028
0.983144
0.983238
0.983312
0.983368
0.983409
0.983436
0.98345
0.98345
0.983436
0.983409
0.983368
0.983313
0.983239
0.983144
0.983028
0.982896
0.982757
0.982621
0.982497
0.982396
0.982321
0.982284
0.982196
0.982236
0.982318
0.982427
0.982559
0.982703
0.982852
0.982992
0.983115
0.983214
0.983289
0.983344
0.983384
0.983411
0.983425
0.983425
0.983411
0.983384
0.983344
0.98329
0.983215
0.983116
0.982993
0.982852
0.982703
0.982559
0.982427
0.982318
0.982237
0.982197
0.982113
0.982157
0.982244
0.98236
0.982499
0.982651
0.982807
0.982954
0.983083
0.983185
0.98326
0.983313
0.983351
0.983377
0.983391
0.983391
0.983377
0.983352
0.983314
0.98326
0.983185
0.983083
0.982955
0.982807
0.982651
0.9825
0.98236
0.982245
0.982158
0.982114
0.982032
0.98208
0.982172
0.982294
0.98244
0.982598
0.982759
0.982911
0.983042
0.983145
0.98322
0.983272
0.983308
0.983332
0.983345
0.983345
0.983332
0.983308
0.983272
0.98322
0.983146
0.983043
0.982911
0.982759
0.982598
0.98244
0.982294
0.982172
0.98208
0.982033
0.981952
0.982002
0.982099
0.982226
0.982378
0.98254
0.982705
0.982859
0.982991
0.983094
0.983167
0.983216
0.983249
0.983272
0.983284
0.983284
0.983272
0.983249
0.983216
0.983167
0.983094
0.982991
0.982859
0.982705
0.98254
0.982378
0.982227
0.982099
0.982003
0.981953
0.981871
0.981924
0.982024
0.982155
0.98231
0.982475
0.982641
0.982795
0.982926
0.983026
0.983097
0.983144
0.983175
0.983195
0.983206
0.983206
0.983195
0.983175
0.983144
0.983097
0.983027
0.982926
0.982795
0.982641
0.982475
0.98231
0.982155
0.982024
0.981924
0.981872
0.98179
0.981844
0.981945
0.982079
0.982236
0.982401
0.982566
0.982716
0.982844
0.982941
0.98301
0.983054
0.983083
0.983101
0.98311
0.98311
0.983101
0.983083
0.983054
0.98301
0.982942
0.982844
0.982717
0.982566
0.982401
0.982236
0.982079
0.981946
0.981844
0.981791
0.981709
0.981763
0.981864
0.981997
0.982153
0.982317
0.982477
0.982622
0.982744
0.982838
0.982903
0.982946
0.982973
0.982988
0.982996
0.982996
0.982988
0.982973
0.982946
0.982904
0.982838
0.982745
0.982623
0.982477
0.982317
0.982153
0.981997
0.981864
0.981763
0.981709
0.981627
0.981681
0.981779
0.98191
0.982062
0.98222
0.982374
0.982511
0.982626
0.982713
0.982776
0.982817
0.982842
0.982856
0.982861
0.982861
0.982856
0.982842
0.982817
0.982776
0.982714
0.982626
0.982512
0.982374
0.98222
0.982062
0.98191
0.981779
0.981681
0.981628
0.981546
0.981597
0.981692
0.981817
0.981962
0.982113
0.982257
0.982384
0.982489
0.982569
0.982627
0.982666
0.98269
0.982703
0.982708
0.982708
0.982703
0.98269
0.982666
0.982627
0.982569
0.982489
0.982384
0.982257
0.982112
0.981962
0.981817
0.981692
0.981598
0.981546
0.981464
0.981513
0.981602
0.981719
0.981855
0.981995
0.982127
0.982242
0.982334
0.982405
0.982457
0.982494
0.98252
0.982534
0.982541
0.982541
0.982534
0.98252
0.982495
0.982457
0.982405
0.982335
0.982242
0.982128
0.981995
0.981855
0.981719
0.981602
0.981513
0.981465
0.981382
0.981427
0.981509
0.981617
0.981743
0.981869
0.981988
0.982088
0.982168
0.982227
0.982273
0.98231
0.982339
0.98236
0.982371
0.982371
0.98236
0.982339
0.98231
0.982274
0.982228
0.982168
0.982089
0.981988
0.981869
0.981742
0.981617
0.981509
0.981427
0.981382
0.981298
0.98134
0.981415
0.981513
0.981626
0.981738
0.981842
0.981928
0.981994
0.982044
0.982085
0.982123
0.982159
0.982189
0.982206
0.982206
0.982189
0.982159
0.982124
0.982086
0.982044
0.981995
0.981928
0.981843
0.981739
0.981626
0.981513
0.981415
0.98134
0.981299
0.981215
0.981253
0.98132
0.981407
0.981506
0.981604
0.981693
0.981764
0.981819
0.981861
0.9819
0.981942
0.981986
0.982025
0.982048
0.982048
0.982025
0.981987
0.981942
0.981901
0.981861
0.981819
0.981765
0.981694
0.981605
0.981506
0.981407
0.98132
0.981253
0.981215
0.981132
0.981166
0.981225
0.981301
0.981386
0.981469
0.981543
0.9816
0.981644
0.98168
0.98172
0.981767
0.981818
0.981864
0.981891
0.981891
0.981864
0.981819
0.981767
0.981721
0.981681
0.981644
0.9816
0.981543
0.981469
0.981386
0.981301
0.981225
0.981165
0.981132
0.981051
0.981081
0.981133
0.981197
0.981268
0.981335
0.981392
0.981435
0.981469
0.981502
0.981542
0.981592
0.981648
0.981698
0.981727
0.981727
0.981698
0.981649
0.981593
0.981542
0.981502
0.98147
0.981436
0.981392
0.981335
0.981268
0.981197
0.981133
0.981081
0.981051
0.980976
0.981001
0.981047
0.981099
0.981155
0.981203
0.981243
0.981271
0.981294
0.981322
0.981361
0.981413
0.981471
0.981521
0.981551
0.981551
0.981522
0.981471
0.981414
0.981362
0.981323
0.981295
0.981271
0.981243
0.981204
0.981155
0.981099
0.981047
0.981001
0.980975
0.980908
0.980929
0.980969
0.981009
0.981049
0.981078
0.981098
0.981109
0.981121
0.981142
0.981179
0.98123
0.981287
0.981337
0.981366
0.981366
0.981337
0.981287
0.98123
0.981179
0.981143
0.981122
0.98111
0.981098
0.981078
0.981049
0.981009
0.980969
0.980929
0.980908
0.980852
0.980869
0.980902
0.98093
0.980953
0.980961
0.98096
0.980955
0.980954
0.980967
0.980999
0.981047
0.981104
0.981153
0.981183
0.981183
0.981153
0.981104
0.981048
0.980999
0.980968
0.980955
0.980955
0.980961
0.980961
0.980953
0.98093
0.980902
0.980869
0.980852
0.980812
0.980823
0.980849
0.980863
0.980868
0.980856
0.980835
0.980812
0.980799
0.980803
0.980829
0.980874
0.980929
0.980979
0.981009
0.981009
0.980979
0.980929
0.980874
0.980829
0.980803
0.980799
0.980813
0.980836
0.980856
0.980868
0.980864
0.980849
0.980823
0.980812
0.980788
0.980793
0.98081
0.98081
0.980797
0.980765
0.980725
0.980686
0.98066
0.980655
0.980674
0.980716
0.980769
0.98082
0.980851
0.980851
0.98082
0.98077
0.980716
0.980675
0.980655
0.980661
0.980687
0.980726
0.980765
0.980797
0.98081
0.98081
0.980793
0.980788
0.980779
0.980777
0.980784
0.980769
0.980739
0.980689
0.980633
0.980579
0.980541
0.980525
0.980537
0.980574
0.980627
0.980677
0.980708
0.980708
0.980677
0.980627
0.980575
0.980538
0.980526
0.980541
0.980579
0.980633
0.980689
0.980739
0.980769
0.980784
0.980777
0.980779
0.98078
0.980771
0.980768
0.980739
0.980693
0.980628
0.980557
0.98049
0.980439
0.980413
0.980417
0.980449
0.980498
0.980548
0.980579
0.980579
0.980548
0.980499
0.980449
0.980417
0.980413
0.980439
0.98049
0.980558
0.980628
0.980694
0.980739
0.980768
0.980771
0.98078
0.980785
0.98077
0.980759
0.980717
0.980659
0.980581
0.980498
0.980417
0.980353
0.980315
0.98031
0.980336
0.980382
0.980429
0.980459
0.980459
0.980429
0.980382
0.980336
0.98031
0.980315
0.980354
0.980418
0.980498
0.980582
0.98066
0.980718
0.980759
0.98077
0.980785
0.980786
0.980766
0.98075
0.9807
0.980633
0.980545
0.980451
0.980358
0.980281
0.98023
0.980215
0.980233
0.980273
0.980317
0.980344
0.980344
0.980317
0.980273
0.980233
0.980215
0.980231
0.980281
0.980359
0.980452
0.980546
0.980633
0.9807
0.98075
0.980766
0.980786
0.980778
0.980753
0.980735
0.98068
0.980609
0.980515
0.980413
0.980309
0.980219
0.980157
0.98013
0.980139
0.980172
0.980208
0.980232
0.980232
0.980208
0.980172
0.980139
0.98013
0.980157
0.98022
0.98031
0.980414
0.980516
0.980609
0.98068
0.980735
0.980753
0.980778
0.980758
0.980729
0.98071
0.980653
0.980581
0.980485
0.980378
0.980265
0.980165
0.980092
0.980055
0.980053
0.980075
0.980103
0.980122
0.980122
0.980103
0.980075
0.980053
0.980055
0.980092
0.980166
0.980266
0.980378
0.980485
0.980582
0.980653
0.98071
0.980729
0.980758
0.980725
0.980692
0.980672
0.980615
0.980544
0.980448
0.980338
0.980221
0.980114
0.980032
0.979984
0.979971
0.979981
0.98
0.980014
0.980014
0.98
0.979981
0.97997
0.979984
0.980032
0.980114
0.980221
0.980338
0.980448
0.980544
0.980615
0.980672
0.980692
0.980725
0.980679
0.980641
0.980621
0.980563
0.980494
0.980399
0.980289
0.980171
0.98006
0.979971
0.979914
0.979889
0.979888
0.979898
0.979906
0.979906
0.979898
0.979887
0.979889
0.979914
0.979972
0.980061
0.980171
0.98029
0.980399
0.980494
0.980563
0.980621
0.980641
0.980679
0.98062
0.980577
0.980557
0.980498
0.98043
0.980336
0.980228
0.980111
0.979999
0.979905
0.979839
0.979802
0.97979
0.979791
0.979796
0.979796
0.979791
0.97979
0.979802
0.979839
0.979905
0.979999
0.980111
0.980229
0.980336
0.98043
0.980499
0.980557
0.980577
0.98062
0.980549
0.9805
0.980481
0.980421
0.980354
0.980261
0.980155
0.980039
0.979927
0.979829
0.979754
0.979706
0.979683
0.979677
0.979677
0.979677
0.979677
0.979683
0.979706
0.979754
0.979829
0.979928
0.98004
0.980155
0.980261
0.980354
0.980421
0.980482
0.980501
0.980549
0.980465
0.980411
0.980394
0.980333
0.980267
0.980174
0.980071
0.979957
0.979844
0.97974
0.979656
0.979596
0.979563
0.97955
0.979547
0.979547
0.97955
0.979563
0.979596
0.979656
0.97974
0.979844
0.979957
0.980071
0.980174
0.980267
0.980333
0.980394
0.980412
0.980465
0.980369
0.98031
0.980296
0.980236
0.980171
0.980079
0.979977
0.979864
0.979748
0.979638
0.979543
0.979473
0.97943
0.979408
0.979401
0.979401
0.979408
0.97943
0.979473
0.979543
0.979638
0.979748
0.979864
0.979977
0.980079
0.980171
0.980236
0.980296
0.980311
0.980369
0.980262
0.980198
0.980188
0.980129
0.980066
0.979976
0.979876
0.979761
0.979641
0.979523
0.979418
0.979336
0.979281
0.979251
0.979239
0.979239
0.979251
0.979281
0.979336
0.979418
0.979523
0.979641
0.979761
0.979876
0.979976
0.980067
0.980129
0.980188
0.980198
0.980263
0.980147
0.980077
0.980072
0.980015
0.979956
0.979866
0.979766
0.979649
0.979523
0.979396
0.979279
0.979185
0.979118
0.979077
0.979059
0.979059
0.979077
0.979118
0.979185
0.979279
0.979396
0.979523
0.979648
0.979766
0.979866
0.979956
0.980015
0.980072
0.980077
0.980147
0.980026
0.97995
0.97995
0.979896
0.97984
0.979751
0.979649
0.979527
0.979394
0.979257
0.979129
0.979021
0.978941
0.978889
0.978865
0.978865
0.978889
0.978941
0.979021
0.979129
0.979257
0.979394
0.979527
0.979649
0.979751
0.97984
0.979896
0.97995
0.979951
0.980027
0.979906
0.979822
0.979826
0.979774
0.97972
0.979631
0.979526
0.979397
0.979255
0.979107
0.978966
0.978845
0.978751
0.978687
0.978656
0.978656
0.978687
0.978751
0.978845
0.978967
0.979107
0.979255
0.979397
0.979526
0.979631
0.97972
0.979774
0.979827
0.979822
0.979906
0.979791
0.979697
0.979705
0.979653
0.9796
0.979508
0.979398
0.979261
0.979109
0.978948
0.978794
0.978657
0.978548
0.978473
0.978435
0.978435
0.978473
0.978548
0.978657
0.978794
0.978948
0.979108
0.979261
0.979398
0.979508
0.979601
0.979653
0.979705
0.979697
0.979791
0.979687
0.979581
0.979591
0.979538
0.979484
0.979387
0.97927
0.979121
0.978957
0.978782
0.978613
0.97846
0.978335
0.978248
0.978204
0.978204
0.978248
0.978336
0.97846
0.978613
0.978782
0.978957
0.979121
0.97927
0.979387
0.979484
0.979539
0.979592
0.979582
0.979688
0.979601
0.97948
0.979491
0.979434
0.979376
0.979271
0.979143
0.978982
0.978803
0.978612
0.978426
0.978255
0.978114
0.978015
0.977964
0.977964
0.978015
0.978114
0.978255
0.978426
0.978612
0.978803
0.978982
0.979143
0.979271
0.979377
0.979435
0.979491
0.979481
0.979601
0.979537
0.979399
0.979408
0.979346
0.979281
0.979164
0.979023
0.978846
0.97865
0.978441
0.978235
0.978044
0.977886
0.977773
0.977715
0.977715
0.977773
0.977886
0.978044
0.978235
0.978441
0.97865
0.978846
0.979023
0.979165
0.979281
0.979346
0.979408
0.979399
0.979537
0.979499
0.97934
0.979347
0.979278
0.979202
0.97907
0.978911
0.978714
0.978499
0.978269
0.978042
0.97783
0.977653
0.977525
0.977458
0.977458
0.977525
0.977653
0.97783
0.978042
0.978269
0.978499
0.978714
0.978911
0.97907
0.979203
0.979278
0.979347
0.97934
0.979499
0.979489
0.979307
0.97931
0.979231
0.979142
0.978989
0.978809
0.978589
0.97835
0.978097
0.977846
0.977612
0.977414
0.977269
0.977193
0.977193
0.977269
0.977414
0.977612
0.977846
0.978097
0.97835
0.978589
0.978809
0.97899
0.979142
0.979232
0.97931
0.979308
0.97949
0.97951
0.979301
0.979298
0.979208
0.9791
0.978923
0.978715
0.978468
0.978202
0.977922
0.977646
0.977387
0.977167
0.977005
0.976919
0.976919
0.977005
0.977167
0.977387
0.977646
0.977922
0.978202
0.978468
0.978715
0.978923
0.9791
0.979208
0.979298
0.979301
0.97951
0.97956
0.979321
0.979311
0.979206
0.979076
0.978869
0.97863
0.97835
0.978053
0.977743
0.977438
0.977153
0.97691
0.97673
0.976634
0.976634
0.97673
0.97691
0.977153
0.977438
0.977743
0.978053
0.97835
0.97863
0.978869
0.979076
0.979207
0.979311
0.979321
0.97956
0.97964
0.979367
0.979347
0.979225
0.979067
0.978826
0.97855
0.978233
0.977901
0.977556
0.977218
0.976904
0.976637
0.976441
0.976336
0.976336
0.976441
0.976637
0.976904
0.977218
0.977556
0.977901
0.978234
0.97855
0.978826
0.979067
0.979226
0.979347
0.979367
0.979641
0.97975
0.979438
0.979406
0.979263
0.979073
0.978792
0.978474
0.978116
0.977742
0.977358
0.976983
0.976636
0.976345
0.976133
0.976022
0.976022
0.976133
0.976345
0.976636
0.976983
0.977358
0.977743
0.978116
0.978475
0.978792
0.979073
0.979264
0.979406
0.979439
0.97975
0.97989
0.979535
0.979487
0.97932
0.979093
0.978766
0.978401
0.977995
0.977575
0.977146
0.97673
0.976348
0.976031
0.975804
0.975686
0.975686
0.975804
0.976031
0.976348
0.97673
0.977147
0.977576
0.977996
0.978402
0.978767
0.979093
0.979321
0.979487
0.979535
0.97989
0.98006
0.979659
0.979592
0.979398
0.979128
0.97875
0.97833
0.97787
0.977398
0.976919
0.976457
0.976037
0.975693
0.97545
0.975325
0.975325
0.97545
0.975693
0.976038
0.976457
0.976919
0.977398
0.97787
0.978331
0.97875
0.979128
0.979398
0.979592
0.979659
0.98006
0.980263
0.979811
0.979724
0.979499
0.979181
0.978743
0.978261
0.977739
0.977207
0.976673
0.976163
0.975703
0.97533
0.975068
0.974935
0.974935
0.975069
0.97533
0.975704
0.976164
0.976674
0.977208
0.97774
0.978262
0.978743
0.979181
0.979499
0.979724
0.979811
0.980263
0.980502
0.979994
0.979886
0.979626
0.979253
0.978748
0.978195
0.977603
0.977004
0.97641
0.975848
0.975347
0.974941
0.974659
0.974515
0.974515
0.974659
0.974942
0.975347
0.975849
0.976411
0.977005
0.977603
0.978196
0.978748
0.979253
0.979626
0.979886
0.979995
0.980502
0.98078
0.980214
0.980081
0.979782
0.979349
0.978768
0.978135
0.977462
0.976789
0.976129
0.975512
0.974967
0.974528
0.974221
0.974064
0.974065
0.974222
0.974529
0.974968
0.975513
0.976129
0.97679
0.977463
0.978135
0.978768
0.979349
0.979782
0.980081
0.980214
0.98078
0.981099
0.980471
0.980314
0.979972
0.979471
0.978805
0.978082
0.97732
0.976564
0.975831
0.975156
0.974565
0.97409
0.973756
0.973584
0.973584
0.973757
0.974091
0.974566
0.975157
0.975832
0.976564
0.977321
0.978082
0.978806
0.979471
0.979972
0.980314
0.980471
0.9811
0.981465
0.980772
0.980588
0.980197
0.979622
0.978864
0.978041
0.97718
0.976331
0.97552
0.974781
0.97414
0.973626
0.973264
0.973076
0.973076
0.973265
0.973627
0.974141
0.974782
0.975521
0.976332
0.97718
0.978041
0.978864
0.979622
0.980197
0.980588
0.980772
0.981465
0.981881
0.981119
0.980906
0.98046
0.979804
0.978946
0.978014
0.977044
0.976094
0.975196
0.974387
0.973692
0.973137
0.972744
0.97254
0.97254
0.972745
0.973138
0.973693
0.974388
0.975197
0.976095
0.977044
0.978014
0.978946
0.979804
0.98046
0.980906
0.981119
0.981881
0.98235
0.981518
0.981274
0.980767
0.980022
0.979053
0.978003
0.976914
0.975855
0.974862
0.973976
0.973221
0.97262
0.972196
0.971976
0.971976
0.972197
0.972621
0.973222
0.973977
0.974863
0.975856
0.976915
0.978003
0.979053
0.980022
0.980767
0.981274
0.981518
0.98235
0.982877
0.981972
0.981694
0.981119
0.980276
0.979189
0.97801
0.976793
0.975615
0.974518
0.973547
0.972724
0.972073
0.971617
0.971381
0.971381
0.971618
0.972074
0.972725
0.973548
0.974519
0.975615
0.976794
0.97801
0.979189
0.980276
0.981119
0.981694
0.981972
0.982878
0.983468
0.982486
0.982172
0.981522
0.980572
0.979354
0.978036
0.976681
0.975373
0.974164
0.973098
0.9722
0.971494
0.971004
0.970751
0.970752
0.971004
0.971496
0.972202
0.973099
0.974165
0.975374
0.976681
0.978036
0.979354
0.980571
0.981522
0.982172
0.982487
0.983468
0.984129
0.983069
0.982715
0.981982
0.980911
0.97955
0.978081
0.976577
0.97513
0.973797
0.972627
0.971646
0.97088
0.970352
0.970082
0.970083
0.970353
0.970881
0.971647
0.972628
0.973798
0.975131
0.976577
0.978081
0.97955
0.980911
0.981982
0.982716
0.983069
0.984129
0.984871
0.983729
0.983333
0.982507
0.9813
0.979781
0.978147
0.976481
0.974883
0.973415
0.97213
0.971058
0.970226
0.969656
0.969368
0.969368
0.969657
0.970227
0.971059
0.972132
0.973416
0.974884
0.976481
0.978147
0.979781
0.9813
0.982507
0.983333
0.983729
0.984871
0.985697
0.984471
0.984033
0.983106
0.981748
0.980052
0.978236
0.976393
0.974631
0.973016
0.971605
0.970433
0.969527
0.968912
0.968602
0.968602
0.968913
0.969528
0.970434
0.971606
0.973017
0.974631
0.976393
0.978236
0.980051
0.981748
0.983106
0.984033
0.984472
0.985698
0.986607
0.985294
0.984815
0.983785
0.982262
0.980368
0.97835
0.976312
0.974371
0.972596
0.971048
0.969765
0.96878
0.968113
0.967779
0.967779
0.968114
0.968781
0.969766
0.971049
0.972597
0.974371
0.976312
0.978349
0.980367
0.982261
0.983785
0.984815
0.985294
0.986607
0.987612
0.986208
0.985687
0.984548
0.982844
0.980734
0.978493
0.976241
0.974101
0.972151
0.970454
0.969051
0.967977
0.967254
0.966892
0.966892
0.967255
0.967978
0.969052
0.970454
0.972152
0.974101
0.97624
0.978493
0.980734
0.982844
0.984548
0.985687
0.986208
0.987612
0.98876
0.987256
0.986687
0.985424
0.983511
0.981157
0.978669
0.97618
0.973822
0.97168
0.969819
0.968285
0.967116
0.96633
0.965937
0.965937
0.966331
0.967116
0.968286
0.969819
0.97168
0.973822
0.97618
0.978669
0.981156
0.983511
0.985424
0.986687
0.987256
0.98876
0.990109
0.988496
0.987875
0.98647
0.9843
0.981652
0.978882
0.976132
0.973534
0.971179
0.969139
0.967463
0.966189
0.965335
0.964908
0.964908
0.965335
0.96619
0.967464
0.969139
0.971179
0.973534
0.976131
0.978882
0.981651
0.9843
0.98647
0.987875
0.988496
0.990109
0.991644
0.989921
0.989266
0.987724
0.985262
0.982256
0.979146
0.976095
0.973232
0.970646
0.968411
0.966581
0.965194
0.964265
0.9638
0.9638
0.964265
0.965194
0.966582
0.968411
0.970646
0.973232
0.976094
0.979145
0.982256
0.985261
0.987724
0.989266
0.989921
0.991644
0.993306
0.991473
0.990808
0.989153
0.986409
0.98301
0.97949
0.976076
0.972915
0.970078
0.967632
0.965635
0.964125
0.963115
0.962609
0.96261
0.963115
0.964125
0.965636
0.967633
0.970078
0.972915
0.976076
0.979489
0.983009
0.986409
0.989153
0.990808
0.991473
0.993306
0.995238
0.993271
0.992558
0.990765
0.987726
0.98392
0.979944
0.976098
0.972584
0.96947
0.9668
0.964623
0.962979
0.961881
0.961332
0.961332
0.961881
0.962979
0.964623
0.9668
0.96947
0.972583
0.976097
0.979943
0.983919
0.987726
0.990764
0.992558
0.993271
0.995238
0.998142
0.995953
0.995017
0.992885
0.989319
0.984981
0.980507
0.97618
0.97225
0.96882
0.965908
0.96354
0.961752
0.96056
0.959965
0.959965
0.96056
0.961753
0.963541
0.965908
0.96882
0.97225
0.97618
0.980506
0.98498
0.989319
0.992885
0.995017
0.995954
0.998142
1.00372
1.00111
0.999474
0.996418
0.991669
0.986335
0.981168
0.976312
0.971928
0.968132
0.96495
0.962382
0.960443
0.959149
0.958504
0.958504
0.95915
0.960443
0.962382
0.96495
0.968132
0.971928
0.976312
0.981168
0.986334
0.991669
0.996418
0.999474
1.00111
1.00372
1.01627
1.01292
1.00942
1.00364
0.996016
0.988457
0.982011
0.976463
0.971614
0.967417
0.963926
0.96114
0.959045
0.957645
0.956946
0.956946
0.957645
0.959045
0.96114
0.963926
0.967417
0.971613
0.976463
0.98201
0.988457
0.996016
1.00364
1.00942
1.01292
1.01627
1.04634
1.04165
1.03355
1.02046
1.00552
0.99262
0.983398
0.976668
0.971279
0.966685
0.962844
0.959809
0.957549
0.956042
0.955288
0.955288
0.956042
0.957549
0.959809
0.962844
0.966685
0.971279
0.976668
0.983397
0.99262
1.00552
1.02046
1.03356
1.04165
1.04634
1.11993
1.11268
1.09368
1.06197
1.02824
1.00189
0.986269
0.9772
0.97092
0.96591
0.961713
0.958389
0.955948
0.954333
0.953523
0.953523
0.954333
0.955948
0.958389
0.961713
0.96591
0.97092
0.9772
0.986268
1.00189
1.02824
1.06198
1.09368
1.11269
1.11994
1.30347
1.2915
1.2499
1.169
1.08391
1.02394
0.993048
0.978713
0.970657
0.965027
0.960512
0.956892
0.954237
0.952508
0.951647
0.951647
0.952508
0.954237
0.956892
0.960512
0.965026
0.970657
0.978713
0.993048
1.02395
1.08391
1.16901
1.24991
1.2915
1.30348
1.63002
1.61347
1.55234
1.40978
1.22335
1.07814
1.00953
0.982871
0.970935
0.964047
0.959179
0.955311
0.95242
0.950558
0.949649
0.949649
0.950558
0.95242
0.955311
0.959179
0.964047
0.970934
0.982871
1.00953
1.07815
1.22336
1.40979
1.55235
1.61348
1.63003
1.99762
1.97917
1.91629
1.7594
1.4938
1.21142
1.04999
0.993372
0.972653
0.963239
0.957662
0.953594
0.950501
0.948484
0.947517
0.947517
0.948484
0.950501
0.953594
0.957662
0.963238
0.972653
0.993372
1.05
1.21143
1.49382
1.75942
1.91631
1.97918
1.99764
2.26264
2.24645
2.20242
2.09082
1.83791
1.4621
1.14725
1.01793
0.977904
0.963157
0.956045
0.951683
0.948455
0.946284
0.945239
0.945239
0.946284
0.948455
0.951682
0.956045
0.963156
0.977904
1.01794
1.14726