# vtk DataFile Version 3.0
Grid data
ASCII
DATASET STRUCTURED_POINTS
DIMENSIONS 30 300 1
ORIGIN 0 0 0
SPACING 0.00833333 0.00333333 1
POINT_DATA 9000
SCALARS rho double
LOOKUP_TABLE default
0.975609
0.975438
0.974876
0.974236
0.973919
0.973688
0.973575
0.973725
0.974098
0.974591
0.975108
0.975547
0.975841
0.975973
0.976014
0.976012
0.975969
0.975835
0.975539
0.9751
0.974584
0.974093
0.973722
0.973574
0.973688
0.973919
0.974237
0.974896
0.97546
0.975655
0.973721
0.973597
0.973598
0.973488
0.973282
0.973212
0.973338
0.973665
0.974151
0.974706
0.975211
0.975539
0.97566
0.97566
0.97563
0.975629
0.975658
0.975657
0.975533
0.975202
0.974698
0.974146
0.973662
0.973336
0.973212
0.973285
0.97349
0.973603
0.973614
0.973747
0.97324
0.973153
0.973216
0.973194
0.973089
0.973211
0.973567
0.974051
0.974608
0.975149
0.975557
0.975783
0.97587
0.975888
0.97588
0.975879
0.975885
0.975866
0.975776
0.975549
0.975143
0.974604
0.974049
0.973566
0.973211
0.973091
0.973199
0.973221
0.973163
0.973252
0.973011
0.972916
0.973024
0.973232
0.973388
0.973714
0.974241
0.974829
0.975411
0.975902
0.976226
0.976381
0.97642
0.976407
0.976388
0.976387
0.976405
0.976415
0.976374
0.976221
0.975898
0.975408
0.974827
0.97424
0.973714
0.97339
0.973236
0.973031
0.972926
0.973023
0.97303
0.972983
0.97317
0.973493
0.973868
0.974388
0.975076
0.975757
0.976335
0.976748
0.97698
0.977079
0.977105
0.977095
0.97708
0.97708
0.977093
0.977101
0.977074
0.976976
0.976745
0.976332
0.975755
0.975075
0.974388
0.97387
0.973496
0.973175
0.972988
0.973036
0.972888
0.972903
0.97322
0.973733
0.974391
0.975105
0.975899
0.976626
0.977167
0.977499
0.977665
0.977739
0.977774
0.977786
0.977787
0.977786
0.977784
0.977771
0.977736
0.977662
0.977496
0.977164
0.976623
0.975898
0.975106
0.974393
0.973735
0.973223
0.972907
0.972892
0.972563
0.972661
0.973134
0.973851
0.974762
0.975659
0.976521
0.977248
0.977735
0.978
0.978131
0.978199
0.978246
0.97828
0.978297
0.978296
0.978278
0.978244
0.978197
0.978128
0.977998
0.977732
0.977245
0.97652
0.975659
0.974763
0.973853
0.973135
0.972663
0.972565
0.972048
0.972235
0.972869
0.973791
0.974917
0.975975
0.97688
0.977569
0.977996
0.978219
0.978338
0.978417
0.978483
0.978538
0.978568
0.978568
0.978537
0.978482
0.978415
0.978336
0.978216
0.977993
0.977566
0.976878
0.975975
0.974918
0.973792
0.97287
0.972236
0.972049
0.971441
0.971727
0.972523
0.973617
0.974894
0.976066
0.976996
0.977638
0.978019
0.978225
0.978349
0.978445
0.978533
0.978605
0.978645
0.978644
0.978604
0.978532
0.978444
0.978347
0.978222
0.978016
0.977635
0.976994
0.976066
0.974894
0.973617
0.972523
0.971727
0.971441
0.970842
0.971228
0.97217
0.973405
0.974787
0.976026
0.976966
0.977571
0.977926
0.97813
0.978268
0.978384
0.978491
0.978576
0.978621
0.978621
0.978576
0.978491
0.978383
0.978266
0.978127
0.977922
0.977567
0.976964
0.976025
0.974786
0.973405
0.97217
0.971227
0.970841
0.970342
0.970828
0.971886
0.97323
0.974673
0.975932
0.976869
0.977457
0.977809
0.978021
0.978174
0.978307
0.978429
0.978522
0.97857
0.97857
0.978521
0.978428
0.978306
0.978172
0.978018
0.977805
0.977454
0.976866
0.975931
0.974672
0.97323
0.971885
0.970827
0.970341
0.969987
0.970563
0.971689
0.973105
0.974574
0.975826
0.976753
0.977346
0.97771
0.977933
0.978097
0.978245
0.978378
0.978479
0.978531
0.978531
0.978479
0.978378
0.978244
0.978095
0.977929
0.977706
0.977343
0.97675
0.975824
0.974572
0.973103
0.971688
0.970561
0.969985
0.969779
0.970427
0.971567
0.973003
0.974465
0.975697
0.976618
0.977231
0.977616
0.977856
0.978037
0.978202
0.978351
0.978462
0.97852
0.97852
0.978462
0.97835
0.978201
0.978035
0.977853
0.977612
0.977228
0.976616
0.975695
0.974463
0.973001
0.971565
0.970425
0.969776
0.969686
0.970395
0.971492
0.972889
0.974305
0.975507
0.976434
0.977079
0.977501
0.977777
0.977988
0.978176
0.978339
0.97846
0.978522
0.978522
0.978459
0.978339
0.978175
0.977986
0.977774
0.977497
0.977075
0.976431
0.975505
0.974303
0.972887
0.97149
0.970393
0.969682
0.969672
0.970435
0.971439
0.972741
0.974068
0.975225
0.976164
0.97686
0.977345
0.97768
0.977932
0.978135
0.978297
0.978412
0.978471
0.978471
0.978411
0.978297
0.978134
0.97793
0.977678
0.977342
0.976857
0.976161
0.975222
0.974065
0.972739
0.971436
0.970431
0.969668
0.96972
0.970502
0.97138
0.972545
0.973752
0.97485
0.975801
0.976561
0.977126
0.977525
0.977804
0.977998
0.978133
0.978224
0.978271
0.978271
0.978223
0.978132
0.977996
0.977802
0.977524
0.977124
0.976558
0.975797
0.974847
0.973749
0.972541
0.971376
0.970498
0.969715
0.969813
0.970556
0.971276
0.972276
0.973351
0.974382
0.975335
0.976151
0.976787
0.977231
0.977512
0.977675
0.977773
0.977836
0.977869
0.977869
0.977834
0.977772
0.977674
0.977511
0.97723
0.976786
0.976148
0.975331
0.974378
0.973347
0.972272
0.971272
0.970552
0.969809
0.969905
0.970551
0.971077
0.971885
0.972819
0.973782
0.974723
0.975572
0.976255
0.976728
0.977008
0.977155
0.977236
0.977286
0.977314
0.977313
0.977285
0.977234
0.977154
0.977008
0.976728
0.976254
0.97557
0.97472
0.973778
0.972815
0.97188
0.971072
0.970546
0.9699
0.969901
0.970417
0.970725
0.971314
0.972092
0.972984
0.973909
0.974778
0.975503
0.97602
0.976335
0.976508
0.976605
0.976664
0.976693
0.976693
0.976662
0.976603
0.976507
0.976336
0.976021
0.975503
0.974777
0.973906
0.97298
0.972087
0.971309
0.970719
0.970411
0.969895
0.969713
0.970087
0.970184
0.970546
0.971154
0.971971
0.972887
0.973789
0.974575
0.975169
0.975559
0.975789
0.975921
0.975994
0.976027
0.976027
0.975993
0.97592
0.975789
0.97556
0.97517
0.974576
0.973788
0.972884
0.971966
0.971148
0.97054
0.970178
0.970081
0.969706
0.969337
0.969573
0.969493
0.969649
0.970084
0.970823
0.971734
0.97268
0.97354
0.974225
0.9747
0.974987
0.975143
0.97522
0.975251
0.975251
0.975221
0.975144
0.974988
0.974701
0.974227
0.973541
0.97268
0.971732
0.970819
0.970078
0.969643
0.969486
0.969566
0.969331
0.968884
0.968987
0.968768
0.968758
0.969032
0.969683
0.970572
0.971545
0.97246
0.973213
0.973751
0.974074
0.974238
0.974307
0.974329
0.97433
0.974308
0.974239
0.974076
0.973753
0.973216
0.972462
0.971546
0.970571
0.969679
0.969026
0.968751
0.968761
0.96898
0.968877
0.968516
0.968502
0.968168
0.968022
0.968151
0.968695
0.969523
0.970479
0.971407
0.972193
0.972767
0.973113
0.973282
0.973344
0.973359
0.97336
0.973344
0.973283
0.973115
0.972769
0.972195
0.971409
0.97048
0.969522
0.968692
0.968146
0.968016
0.968161
0.968495
0.96851
0.968374
0.968266
0.967831
0.967565
0.967559
0.967972
0.968694
0.969588
0.970494
0.97129
0.971892
0.972268
0.972454
0.972521
0.972537
0.972537
0.972522
0.972455
0.972269
0.971893
0.971291
0.970496
0.969589
0.968694
0.96797
0.967555
0.96756
0.967825
0.96826
0.968367
0.968518
0.968345
0.967833
0.967456
0.967322
0.967587
0.968175
0.968985
0.969858
0.970662
0.971302
0.971724
0.971946
0.972034
0.972058
0.972058
0.972034
0.971947
0.971725
0.971303
0.970664
0.969859
0.968986
0.968175
0.967586
0.967319
0.967453
0.967828
0.96834
0.968512
0.968933
0.968726
0.968175
0.967706
0.967453
0.967574
0.968023
0.968752
0.9696
0.970426
0.971115
0.971597
0.97187
0.971989
0.972026
0.972026
0.971989
0.971871
0.971598
0.971116
0.970426
0.9696
0.968752
0.968024
0.967574
0.967452
0.967704
0.968172
0.968723
0.968929
0.969592
0.969375
0.968821
0.968287
0.967933
0.967922
0.968239
0.96889
0.969717
0.970568
0.97131
0.971857
0.972186
0.972342
0.972395
0.972395
0.972342
0.972187
0.971858
0.971311
0.970568
0.969717
0.968889
0.968239
0.967923
0.967934
0.968287
0.96882
0.969373
0.96959
0.970482
0.970267
0.969735
0.96916
0.968722
0.968588
0.968772
0.969332
0.970125
0.970989
0.971776
0.972384
0.972774
0.972971
0.973044
0.973045
0.972971
0.972774
0.972384
0.971776
0.970989
0.970125
0.969332
0.968772
0.968588
0.968723
0.969161
0.969735
0.970267
0.970481
0.971563
0.971364
0.970871
0.970274
0.969764
0.969512
0.969558
0.970005
0.970736
0.971589
0.972405
0.973068
0.973519
0.973765
0.973863
0.973863
0.973765
0.973519
0.973068
0.972405
0.971589
0.970736
0.970004
0.969558
0.969512
0.969765
0.970275
0.970872
0.971364
0.971563
0.972755
0.972582
0.972146
0.971553
0.970988
0.970626
0.970533
0.970847
0.97149
0.972308
0.973133
0.973838
0.974348
0.974646
0.974773
0.974773
0.974646
0.974348
0.973839
0.973133
0.972308
0.97149
0.970847
0.970533
0.970626
0.970988
0.971553
0.972147
0.972583
0.972756
0.973971
0.973828
0.973459
0.972895
0.972301
0.97185
0.971632
0.971808
0.972342
0.973103
0.973917
0.974651
0.975212
0.975562
0.975718
0.975718
0.975562
0.975212
0.974651
0.973918
0.973103
0.972343
0.971808
0.971632
0.97185
0.972302
0.972895
0.97346
0.973829
0.973971
0.975129
0.97502
0.974722
0.974205
0.973606
0.97309
0.972771
0.972818
0.973236
0.973923
0.974711
0.975457
0.97606
0.976458
0.976646
0.976646
0.976458
0.97606
0.975457
0.974711
0.973924
0.973236
0.972818
0.972771
0.97309
0.973606
0.974205
0.974722
0.97502
0.975129
0.97617
0.976093
0.975863
0.975404
0.974818
0.974261
0.973864
0.973795
0.974093
0.974698
0.975447
0.976197
0.976834
0.977278
0.977497
0.977497
0.977278
0.976834
0.976197
0.975447
0.974698
0.974093
0.973795
0.973864
0.974261
0.974818
0.975404
0.975863
0.976093
0.97617
0.977069
0.97702
0.976846
0.976446
0.975884
0.975302
0.974841
0.974666
0.974843
0.975359
0.976064
0.976814
0.977482
0.977971
0.978222
0.978222
0.977971
0.977482
0.976814
0.976065
0.975359
0.974844
0.974667
0.974841
0.975302
0.975884
0.976446
0.976846
0.97702
0.977069
0.97784
0.977813
0.977679
0.977329
0.976797
0.9762
0.975683
0.975409
0.975464
0.975883
0.976539
0.977285
0.977983
0.978518
0.978804
0.978804
0.978519
0.977984
0.977285
0.976539
0.975883
0.975465
0.975409
0.975684
0.9762
0.976797
0.977329
0.977679
0.977812
0.97784
0.978516
0.978504
0.978398
0.978091
0.977593
0.97699
0.976424
0.976054
0.975989
0.976302
0.9769
0.977636
0.978363
0.978942
0.979261
0.979261
0.978942
0.978363
0.977637
0.9769
0.976302
0.975989
0.976055
0.976424
0.97699
0.977593
0.978091
0.978398
0.978504
0.978516
0.979132
0.979132
0.979045
0.978776
0.978318
0.977722
0.977118
0.976661
0.976479
0.976679
0.977207
0.977924
0.978668
0.979285
0.979635
0.979635
0.979286
0.978669
0.977924
0.977207
0.976679
0.976479
0.976662
0.977118
0.977722
0.978318
0.978776
0.979045
0.979132
0.979132
0.979713
0.979723
0.97965
0.979417
0.979007
0.978435
0.977808
0.977279
0.976988
0.977071
0.977516
0.978197
0.978946
0.979589
0.979961
0.979961
0.979589
0.978946
0.978197
0.977516
0.977071
0.976988
0.977279
0.977808
0.978435
0.979007
0.979418
0.97965
0.979723
0.979713
0.980272
0.980287
0.980226
0.980029
0.979672
0.97914
0.978509
0.977924
0.977539
0.977506
0.977854
0.978483
0.979219
0.979871
0.980257
0.980257
0.979872
0.979219
0.978483
0.977854
0.977506
0.97754
0.977925
0.978509
0.97914
0.979672
0.980029
0.980226
0.980287
0.980272
0.980806
0.980824
0.980773
0.980609
0.980308
0.979829
0.979212
0.978589
0.978124
0.977979
0.97822
0.97878
0.979484
0.98013
0.980517
0.980517
0.98013
0.979484
0.97878
0.97822
0.977979
0.978124
0.978589
0.979212
0.979829
0.980309
0.98061
0.980773
0.980825
0.980806
0.981312
0.98133
0.981286
0.981151
0.980904
0.980482
0.979891
0.979247
0.978716
0.978466
0.978595
0.979071
0.979726
0.980349
0.980726
0.980727
0.980349
0.979726
0.979071
0.978595
0.978467
0.978716
0.979247
0.979891
0.980482
0.980904
0.981152
0.981287
0.981331
0.981312
0.981783
0.9818
0.98176
0.981648
0.981446
0.98108
0.980524
0.979871
0.979288
0.978944
0.978959
0.979339
0.97993
0.980514
0.980872
0.980872
0.980514
0.97993
0.979339
0.978959
0.978945
0.979288
0.979872
0.980525
0.981081
0.981446
0.981649
0.98176
0.9818
0.981784
0.982218
0.982231
0.982192
0.982097
0.98193
0.981615
0.981097
0.980446
0.979822
0.979396
0.979299
0.979575
0.980089
0.980621
0.98095
0.98095
0.980621
0.980089
0.979575
0.9793
0.979396
0.979823
0.980447
0.981098
0.981616
0.981931
0.982098
0.982193
0.982231
0.982218
0.982614
0.982623
0.982584
0.982501
0.98236
0.982087
0.981609
0.980968
0.980314
0.979817
0.979616
0.979782
0.980207
0.980675
0.980967
0.980967
0.980675
0.980207
0.979782
0.979616
0.979818
0.980315
0.980968
0.981609
0.982088
0.98236
0.982501
0.982585
0.982623
0.982614
0.982973
0.982978
0.98294
0.982864
0.982741
0.982504
0.982065
0.981443
0.98077
0.980214
0.979917
0.979968
0.980294
0.980689
0.980936
0.980936
0.980688
0.980294
0.979968
0.979917
0.980214
0.98077
0.981443
0.982065
0.982504
0.982741
0.982864
0.98294
0.982979
0.982973
0.983299
0.983301
0.983264
0.983194
0.983085
0.982877
0.982478
0.981882
0.981201
0.980597
0.980212
0.980148
0.980366
0.980675
0.980873
0.980873
0.980675
0.980365
0.980148
0.980212
0.980597
0.981201
0.981882
0.982478
0.982877
0.983085
0.983195
0.983264
0.983302
0.983299
0.983598
0.983599
0.983564
0.9835
0.983401
0.983219
0.98286
0.982297
0.981618
0.980975
0.980511
0.980331
0.98043
0.980647
0.980791
0.980791
0.980647
0.98043
0.980331
0.980511
0.980975
0.981618
0.982297
0.98286
0.983219
0.983401
0.9835
0.983564
0.9836
0.983598
0.983878
0.983879
0.983846
0.983787
0.983697
0.983537
0.983218
0.982693
0.982025
0.981353
0.980815
0.980521
0.980494
0.98061
0.980695
0.980695
0.98061
0.980494
0.980521
0.980815
0.981353
0.982025
0.982693
0.983218
0.983537
0.983697
0.983788
0.983846
0.983879
0.983878
0.984142
0.984143
0.984113
0.984058
0.983975
0.983834
0.983553
0.98307
0.98242
0.981726
0.981122
0.980715
0.980556
0.980565
0.98059
0.98059
0.980565
0.980556
0.980715
0.981122
0.981726
0.98242
0.98307
0.983553
0.983834
0.983975
0.984059
0.984113
0.984144
0.984143
0.984392
0.984393
0.984364
0.984311
0.984232
0.984106
0.983859
0.98342
0.982794
0.982086
0.981422
0.980907
0.980613
0.980509
0.980472
0.980472
0.980509
0.980613
0.980907
0.981422
0.982086
0.982794
0.98342
0.983859
0.984106
0.984232
0.984311
0.984364
0.984393
0.984392
0.984622
0.984623
0.984594
0.98454
0.984461
0.984346
0.984128
0.983731
0.983135
0.98242
0.981703
0.981086
0.980659
0.980439
0.98034
0.98034
0.980439
0.980659
0.981086
0.981703
0.98242
0.983135
0.983731
0.984128
0.984346
0.984461
0.98454
0.984594
0.984623
0.984622
0.984828
0.984828
0.984798
0.98474
0.984658
0.984548
0.984354
0.983996
0.983433
0.982719
0.981956
0.981245
0.980689
0.980353
0.98019
0.98019
0.980353
0.980689
0.981245
0.981956
0.982719
0.983433
0.983996
0.984354
0.984548
0.984658
0.98474
0.984798
0.984828
0.984828
0.985006
0.985005
0.984972
0.984908
0.984819
0.984711
0.984533
0.984211
0.983684
0.982977
0.982177
0.981381
0.980703
0.980253
0.980027
0.980027
0.980253
0.980703
0.98138
0.982177
0.982977
0.983684
0.984211
0.984533
0.98471
0.984819
0.984908
0.984972
0.985005
0.985006
0.985156
0.985155
0.985119
0.985047
0.98495
0.984838
0.984672
0.984381
0.983889
0.983195
0.982365
0.981493
0.980703
0.980143
0.979855
0.979855
0.980143
0.980703
0.981493
0.982365
0.983195
0.983889
0.984381
0.984672
0.984838
0.98495
0.985047
0.985119
0.985155
0.985156
0.985282
0.985281
0.985242
0.985163
0.985056
0.984938
0.98478
0.984513
0.984057
0.98338
0.982527
0.981587
0.980696
0.980032
0.979684
0.979684
0.980032
0.980696
0.981587
0.982527
0.98338
0.984057
0.984513
0.984779
0.984938
0.985056
0.985162
0.985242
0.985281
0.985282
0.985389
0.985389
0.985348
0.985261
0.985145
0.985021
0.984866
0.984621
0.984196
0.983539
0.982668
0.981669
0.980688
0.979929
0.979523
0.979523
0.979929
0.980688
0.981669
0.982668
0.983539
0.984196
0.98462
0.984866
0.985021
0.985145
0.985261
0.985348
0.985389
0.985389
0.985485
0.985485
0.985442
0.98535
0.985226
0.985094
0.984941
0.984711
0.984316
0.983678
0.982794
0.981745
0.980684
0.97984
0.97938
0.97938
0.97984
0.980684
0.981745
0.982794
0.983678
0.984316
0.984711
0.98494
0.985094
0.985225
0.98535
0.985442
0.985485
0.985485
0.985573
0.985574
0.98553
0.985433
0.985301
0.985163
0.985009
0.984792
0.984421
0.983802
0.982909
0.981817
0.98069
0.979771
0.979262
0.979262
0.979771
0.98069
0.981817
0.982909
0.983802
0.984421
0.984792
0.985009
0.985163
0.985301
0.985433
0.98553
0.985574
0.985573
0.985658
0.985658
0.985613
0.985512
0.985373
0.985229
0.985073
0.984864
0.984513
0.983911
0.983012
0.981886
0.980705
0.979723
0.979172
0.979172
0.979723
0.980705
0.981886
0.983012
0.983911
0.984513
0.984864
0.985073
0.985229
0.985373
0.985512
0.985613
0.985658
0.985658
0.985739
0.985739
0.985691
0.985586
0.985442
0.985291
0.985132
0.984928
0.98459
0.984003
0.983103
0.981952
0.980729
0.979697
0.97911
0.97911
0.979697
0.980729
0.981952
0.983103
0.984003
0.98459
0.984928
0.985132
0.985291
0.985442
0.985585
0.985691
0.985739
0.985739
0.985817
0.985815
0.985763
0.985653
0.985504
0.985348
0.985185
0.984981
0.984652
0.984078
0.983179
0.982013
0.980759
0.97969
0.979074
0.979074
0.97969
0.980759
0.982013
0.983179
0.984078
0.984652
0.984981
0.985185
0.985348
0.985504
0.985653
0.985763
0.985815
0.985817
0.985889
0.985884
0.985828
0.985714
0.98556
0.985399
0.98523
0.985023
0.984698
0.984132
0.983239
0.982065
0.980794
0.979699
0.979063
0.979063
0.979699
0.980794
0.982065
0.983239
0.984132
0.984698
0.985023
0.985229
0.985399
0.98556
0.985714
0.985828
0.985884
0.985888
0.985953
0.985945
0.985884
0.985767
0.985609
0.985442
0.985266
0.985054
0.984727
0.984167
0.983281
0.982108
0.980831
0.979722
0.979074
0.979074
0.979722
0.980831
0.982108
0.983281
0.984167
0.984727
0.985054
0.985266
0.985442
0.985609
0.985767
0.985884
0.985945
0.985953
0.986009
0.985997
0.985932
0.985811
0.98565
0.985478
0.985294
0.985072
0.984739
0.984181
0.983304
0.982139
0.980866
0.979755
0.979104
0.979104
0.979755
0.980866
0.982139
0.983304
0.984181
0.984739
0.985072
0.985294
0.985478
0.98565
0.985811
0.985932
0.985997
0.986009
0.986054
0.986039
0.98597
0.985846
0.985683
0.985506
0.985313
0.98508
0.984735
0.984175
0.983307
0.982157
0.980898
0.979797
0.97915
0.97915
0.979797
0.980898
0.982157
0.983307
0.984175
0.984735
0.985079
0.985313
0.985506
0.985683
0.985846
0.98597
0.986039
0.986054
0.986089
0.98607
0.985998
0.985873
0.985707
0.985526
0.985323
0.985075
0.984715
0.984148
0.98329
0.982161
0.980925
0.979843
0.979209
0.979209
0.979843
0.980925
0.982161
0.98329
0.984148
0.984715
0.985075
0.985323
0.985526
0.985707
0.985873
0.985998
0.98607
0.986089
0.986114
0.986092
0.986017
0.985889
0.985722
0.985536
0.985323
0.985057
0.984678
0.984102
0.983253
0.982149
0.980945
0.979893
0.979278
0.979278
0.979893
0.980945
0.982149
0.983253
0.984102
0.984678
0.985057
0.985323
0.985536
0.985722
0.985889
0.986017
0.986092
0.986114
0.986127
0.986102
0.986024
0.985895
0.985726
0.985534
0.98531
0.985026
0.984625
0.984037
0.983197
0.982121
0.980957
0.979944
0.979355
0.979355
0.979944
0.980957
0.982121
0.983197
0.984037
0.984625
0.985026
0.98531
0.985534
0.985726
0.985895
0.986024
0.986102
0.986127
0.986131
0.986102
0.986021
0.985889
0.985717
0.985521
0.985286
0.984982
0.984557
0.983955
0.983123
0.98208
0.980962
0.979994
0.979436
0.979436
0.979994
0.980962
0.98208
0.983123
0.983955
0.984557
0.984982
0.985286
0.985521
0.985717
0.985889
0.986021
0.986102
0.986131
0.986123
0.986092
0.986006
0.985872
0.985697
0.985495
0.985249
0.984924
0.984476
0.983857
0.983034
0.982026
0.980959
0.980043
0.979521
0.979521
0.980043
0.980959
0.982026
0.983034
0.983857
0.984476
0.984924
0.985249
0.985495
0.985697
0.985872
0.986006
0.986092
0.986123
0.986106
0.986071
0.985982
0.985844
0.985666
0.985459
0.985201
0.984856
0.984382
0.983748
0.982933
0.981962
0.98095
0.980092
0.979608
0.979608
0.980092
0.98095
0.981962
0.982933
0.983748
0.984382
0.984856
0.985201
0.985459
0.985666
0.985844
0.985982
0.986071
0.986106
0.986078
0.986041
0.985948
0.985807
0.985626
0.985414
0.985144
0.984778
0.984279
0.98363
0.982824
0.98189
0.980937
0.98014
0.979696
0.979696
0.98014
0.980937
0.98189
0.982824
0.98363
0.984279
0.984778
0.985144
0.985414
0.985626
0.985807
0.985948
0.986041
0.986078
0.986043
0.986002
0.985907
0.985763
0.98558
0.985362
0.985079
0.984693
0.98417
0.983505
0.982708
0.981814
0.980921
0.980189
0.979786
0.979786
0.980189
0.980921
0.981814
0.982708
0.983505
0.98417
0.984693
0.985079
0.985362
0.98558
0.985763
0.985907
0.986002
0.986043
0.986001
0.985958
0.98586
0.985714
0.985529
0.985305
0.98501
0.984603
0.984055
0.983376
0.982589
0.981735
0.980905
0.980238
0.979877
0.979877
0.980238
0.980905
0.981735
0.982589
0.983376
0.984055
0.984603
0.98501
0.985305
0.985529
0.985714
0.98586
0.985958
0.986001
0.985954
0.985909
0.98581
0.985662
0.985474
0.985244
0.984936
0.984508
0.983937
0.983245
0.982469
0.981656
0.980889
0.980288
0.979969
0.979969
0.980288
0.980889
0.981656
0.982469
0.983245
0.983937
0.984508
0.984936
0.985244
0.985474
0.985662
0.98581
0.985909
0.985954
0.985904
0.985857
0.985757
0.985607
0.985416
0.98518
0.984859
0.98441
0.983818
0.983114
0.98235
0.981578
0.980875
0.98034
0.980062
0.980062
0.98034
0.980875
0.981578
0.98235
0.983114
0.983818
0.98441
0.984859
0.98518
0.985416
0.985607
0.985757
0.985857
0.985904
0.985851
0.985803
0.985701
0.98555
0.985356
0.985113
0.984779
0.984311
0.983698
0.982985
0.982233
0.981502
0.980863
0.980393
0.980155
0.980155
0.980393
0.980863
0.981502
0.982233
0.982985
0.983698
0.984311
0.984779
0.985113
0.985356
0.98555
0.985701
0.985803
0.985851
0.985797
0.985747
0.985644
0.985491
0.985294
0.985043
0.984695
0.984209
0.983579
0.982858
0.982121
0.98143
0.980853
0.980446
0.980248
0.980248
0.980446
0.980853
0.98143
0.982121
0.982858
0.983579
0.984209
0.984695
0.985043
0.985294
0.985491
0.985644
0.985747
0.985797
0.98574
0.98569
0.985586
0.98543
0.985229
0.98497
0.984609
0.984106
0.983461
0.982735
0.982012
0.981361
0.980845
0.9805
0.980338
0.980338
0.9805
0.980845
0.981361
0.982012
0.982735
0.983461
0.984106
0.984609
0.98497
0.985229
0.98543
0.985586
0.98569
0.98574
0.985681
0.98563
0.985525
0.985367
0.985161
0.984894
0.98452
0.984001
0.983343
0.982615
0.981907
0.981296
0.980838
0.980551
0.980425
0.980425
0.980551
0.980838
0.981296
0.981907
0.982615
0.983343
0.984001
0.98452
0.984894
0.985161
0.985367
0.985525
0.98563
0.985681
0.98562
0.985568
0.985463
0.985303
0.985092
0.984815
0.984428
0.983894
0.983226
0.982497
0.981807
0.981234
0.980832
0.9806
0.980506
0.980506
0.9806
0.980832
0.981234
0.981807
0.982497
0.983226
0.983894
0.984428
0.984815
0.985092
0.985303
0.985463
0.985568
0.98562
0.985557
0.985505
0.9854
0.985237
0.985021
0.984734
0.984333
0.983785
0.983108
0.982381
0.981709
0.981175
0.980826
0.980645
0.980581
0.980581
0.980645
0.980826
0.981175
0.981709
0.982381
0.983108
0.983785
0.984333
0.984734
0.985021
0.985237
0.9854
0.985505
0.985557
0.985492
0.98544
0.985335
0.985171
0.984948
0.98465
0.984234
0.983673
0.98299
0.982267
0.981615
0.981118
0.980819
0.980685
0.980649
0.980649
0.980685
0.980819
0.981118
0.981615
0.982267
0.98299
0.983673
0.984234
0.98465
0.984948
0.985171
0.985335
0.98544
0.985492
0.985426
0.985374
0.98527
0.985102
0.984873
0.984562
0.984132
0.983559
0.982871
0.982155
0.981523
0.981064
0.980812
0.980721
0.98071
0.98071
0.980721
0.980812
0.981064
0.981523
0.982155
0.982871
0.983559
0.984132
0.984562
0.984873
0.985102
0.98527
0.985374
0.985426
0.985357
0.985306
0.985202
0.985032
0.984795
0.984472
0.984027
0.983442
0.982752
0.982045
0.981436
0.981013
0.980805
0.980754
0.980766
0.980766
0.980754
0.980805
0.981013
0.981436
0.982045
0.982752
0.983442
0.984027
0.984472
0.984795
0.985032
0.985202
0.985306
0.985357
0.985287
0.985236
0.985133
0.98496
0.984715
0.984379
0.983919
0.983324
0.982633
0.981937
0.981352
0.980965
0.980799
0.980784
0.980816
0.980816
0.980784
0.980799
0.980965
0.981352
0.981937
0.982633
0.983324
0.983919
0.984379
0.984715
0.98496
0.985133
0.985236
0.985287
0.985215
0.985164
0.985061
0.984885
0.984632
0.984283
0.98381
0.983206
0.982516
0.981833
0.981272
0.980921
0.980793
0.98081
0.980861
0.980861
0.98081
0.980793
0.980921
0.981272
0.981833
0.982516
0.983206
0.98381
0.984283
0.984632
0.984885
0.985061
0.985164
0.985215
0.985139
0.985089
0.984987
0.984809
0.984548
0.984186
0.983699
0.983088
0.982401
0.981732
0.981197
0.980879
0.980786
0.980833
0.9809
0.9809
0.980833
0.980786
0.980879
0.981197
0.981732
0.982401
0.983088
0.983699
0.984186
0.984548
0.984809
0.984987
0.985089
0.985139
0.985062
0.985012
0.984911
0.98473
0.984462
0.984088
0.983588
0.982971
0.982287
0.981634
0.981124
0.980839
0.980779
0.980852
0.980933
0.980933
0.980852
0.980779
0.980839
0.981124
0.981634
0.982287
0.982971
0.983588
0.984088
0.984462
0.98473
0.984911
0.985012
0.985062
0.984982
0.984933
0.984833
0.98465
0.984374
0.983988
0.983476
0.982853
0.982175
0.981538
0.981054
0.9808
0.98077
0.980866
0.980959
0.980959
0.980866
0.98077
0.9808
0.981054
0.981538
0.982175
0.982853
0.983476
0.983988
0.984374
0.98465
0.984833
0.984933
0.984982
0.984902
0.984853
0.984754
0.984568
0.984284
0.983885
0.983363
0.982735
0.982063
0.981443
0.980986
0.980762
0.980758
0.980875
0.980979
0.980979
0.980875
0.980758
0.980762
0.980986
0.981443
0.982063
0.982735
0.983363
0.983885
0.984284
0.984568
0.984754
0.984853
0.984902
0.984822
0.984774
0.984674
0.984484
0.984192
0.983781
0.983248
0.982616
0.981951
0.98135
0.980919
0.980723
0.980745
0.980879
0.980992
0.980992
0.980879
0.980745
0.980723
0.980919
0.98135
0.981951
0.982616
0.983248
0.983781
0.984192
0.984484
0.984674
0.984774
0.984822
0.984743
0.984694
0.984594
0.984399
0.984097
0.983673
0.98313
0.982496
0.98184
0.981257
0.980853
0.980685
0.980729
0.980879
0.981
0.981
0.980879
0.980729
0.980685
0.980853
0.981257
0.98184
0.982496
0.98313
0.983673
0.984097
0.984399
0.984594
0.984694
0.984743
0.984664
0.984615
0.984513
0.984313
0.984
0.983564
0.983011
0.982376
0.981729
0.981166
0.980788
0.980646
0.980711
0.980876
0.981004
0.981004
0.980876
0.980711
0.980646
0.980788
0.981166
0.981729
0.982376
0.983011
0.983564
0.984
0.984313
0.984513
0.984615
0.984664
0.984586
0.984536
0.984432
0.984225
0.983903
0.983454
0.982892
0.982256
0.98162
0.981077
0.980725
0.980608
0.980692
0.98087
0.981004
0.981004
0.98087
0.980692
0.980608
0.980725
0.981077
0.98162
0.982256
0.982892
0.983454
0.983903
0.984225
0.984432
0.984536
0.984586
0.984508
0.984457
0.984351
0.984137
0.983804
0.983344
0.982774
0.982139
0.981513
0.98099
0.980663
0.98057
0.980672
0.980861
0.981001
0.981001
0.980861
0.980672
0.98057
0.980663
0.98099
0.981513
0.982139
0.982774
0.983344
0.983804
0.984137
0.984351
0.984457
0.984508
0.98443
0.984378
0.984269
0.984049
0.983706
0.983234
0.982658
0.982023
0.981408
0.980906
0.980602
0.980531
0.980649
0.980848
0.980993
0.980993
0.980848
0.980649
0.980531
0.980602
0.980906
0.981408
0.982023
0.982658
0.983234
0.983706
0.984049
0.984269
0.984378
0.98443
0.984352
0.984299
0.984187
0.983961
0.983609
0.983127
0.982544
0.981911
0.981306
0.980822
0.980541
0.980489
0.980622
0.980832
0.98098
0.98098
0.980832
0.980622
0.980489
0.980541
0.980822
0.981306
0.981911
0.982544
0.983127
0.983609
0.983961
0.984187
0.984299
0.984352
0.984275
0.98422
0.984106
0.983874
0.983512
0.983021
0.982432
0.981801
0.981207
0.98074
0.980479
0.980446
0.980592
0.98081
0.980963
0.980963
0.98081
0.980592
0.980446
0.980479
0.98074
0.981207
0.981801
0.982432
0.983021
0.983512
0.983874
0.984106
0.98422
0.984275
0.9842
0.984142
0.984026
0.983787
0.983417
0.982916
0.982323
0.981693
0.981109
0.980658
0.980417
0.9804
0.980558
0.980784
0.98094
0.98094
0.980784
0.980558
0.9804
0.980417
0.980658
0.981109
0.981693
0.982323
0.982916
0.983417
0.983787
0.984026
0.984142
0.9842
0.984125
0.984066
0.983946
0.9837
0.983321
0.982812
0.982214
0.981587
0.981013
0.980578
0.980354
0.980352
0.980521
0.980754
0.980914