# vtk DataFile Version 3.0
Grid data
ASCII
DATASET STRUCTURED_POINTS
DIMENSIONS 30 300 1
ORIGIN 0 0 0
SPACING 0.00833333 0.00333333 1
POINT_DATA 9000
SCALARS rho double
LOOKUP_TABLE default
0.966282
0.966321
0.966405
0.96657
0.966832
0.96708
0.96726
0.967386
0.967478
0.967546
0.967597
0.967635
0.967663
0.96768
0.967689
0.967689
0.96768
0.967663
0.967636
0.967598
0.967547
0.967479
0.967388
0.967262
0.967083
0.966835
0.966572
0.966405
0.966322
0.966276
0.965336
0.965382
0.965471
0.965673
0.965986
0.966268
0.966465
0.966605
0.96671
0.966791
0.966856
0.966907
0.966948
0.966978
0.966994
0.966994
0.966978
0.966949
0.966908
0.966856
0.966792
0.96671
0.966605
0.966466
0.96627
0.96599
0.965677
0.965474
0.965384
0.965336
0.96552
0.965568
0.965658
0.965826
0.966043
0.966249
0.966409
0.966533
0.966634
0.966718
0.966788
0.966847
0.966897
0.966935
0.966957
0.966957
0.966936
0.966898
0.966848
0.966788
0.966718
0.966633
0.966532
0.966408
0.966249
0.966045
0.96583
0.965663
0.965574
0.965525
0.966151
0.9662
0.966284
0.96641
0.96654
0.966664
0.966772
0.966869
0.966956
0.967033
0.9671
0.967157
0.967206
0.967242
0.967263
0.967263
0.967243
0.967206
0.967158
0.9671
0.967033
0.966955
0.966867
0.96677
0.966663
0.966541
0.966414
0.966291
0.966209
0.96616
0.966957
0.966994
0.967048
0.967132
0.967221
0.967313
0.9674
0.967486
0.967567
0.967639
0.967701
0.96775
0.967788
0.967815
0.96783
0.96783
0.967816
0.967789
0.96775
0.9677
0.967639
0.967565
0.967483
0.967397
0.967311
0.967221
0.967136
0.967055
0.967004
0.966968
0.967676
0.967699
0.96772
0.967762
0.967814
0.967882
0.967958
0.968039
0.968119
0.968188
0.968242
0.968281
0.968305
0.96832
0.968326
0.968326
0.96832
0.968306
0.968281
0.968242
0.968187
0.968117
0.968037
0.967955
0.96788
0.967814
0.967765
0.967727
0.967708
0.967685
0.968191
0.968204
0.968198
0.968205
0.968229
0.968283
0.968357
0.968442
0.968524
0.968593
0.968641
0.968669
0.968683
0.968687
0.968687
0.968687
0.968687
0.968683
0.968669
0.968641
0.968592
0.968523
0.96844
0.968355
0.968282
0.96823
0.968209
0.968204
0.968211
0.968198
0.968463
0.968471
0.968451
0.968439
0.968443
0.968487
0.968562
0.968652
0.968739
0.968809
0.968855
0.968879
0.968887
0.968887
0.968886
0.968886
0.968887
0.968887
0.968879
0.968855
0.968809
0.968738
0.968651
0.968561
0.968486
0.968444
0.968442
0.968455
0.968476
0.968468
0.968552
0.968558
0.968533
0.968515
0.968512
0.968552
0.96863
0.968727
0.968822
0.968897
0.968946
0.968971
0.968981
0.968983
0.968983
0.968983
0.968983
0.968981
0.968972
0.968946
0.968897
0.968822
0.968727
0.968629
0.968552
0.968514
0.968517
0.968537
0.968562
0.968556
0.968536
0.968543
0.968518
0.9685
0.968495
0.968533
0.968611
0.968714
0.968817
0.968901
0.968958
0.96899
0.969005
0.969011
0.969014
0.969014
0.969011
0.969005
0.96899
0.968958
0.968901
0.968817
0.968714
0.968611
0.968534
0.968497
0.968502
0.968521
0.968547
0.96854
0.968489
0.968496
0.96847
0.968454
0.968452
0.96849
0.968568
0.968675
0.968785
0.968879
0.968946
0.968987
0.969009
0.96902
0.969025
0.969025
0.96902
0.969009
0.968987
0.968946
0.968879
0.968786
0.968675
0.968569
0.968491
0.968454
0.968457
0.968473
0.9685
0.968493
0.968452
0.968458
0.968429
0.968415
0.968416
0.968458
0.968539
0.96865
0.968768
0.968872
0.968949
0.968999
0.969028
0.969044
0.969051
0.969051
0.969044
0.969028
0.968999
0.968949
0.968872
0.968768
0.96865
0.96854
0.968459
0.968418
0.968418
0.968433
0.968462
0.968456
0.968441
0.968446
0.968413
0.968398
0.968403
0.968453
0.968543
0.968662
0.968789
0.968903
0.96899
0.96905
0.969086
0.969107
0.969117
0.969117
0.969107
0.969087
0.96905
0.968991
0.968903
0.96879
0.968663
0.968543
0.968454
0.968405
0.9684
0.968417
0.96845
0.968445
0.968452
0.968456
0.968418
0.968401
0.96841
0.968469
0.968573
0.968706
0.968846
0.968971
0.96907
0.969139
0.969184
0.969212
0.969225
0.969225
0.969212
0.969185
0.969139
0.96907
0.968972
0.968846
0.968706
0.968573
0.968471
0.968412
0.968404
0.968422
0.96846
0.968457
0.968471
0.968474
0.968433
0.968415
0.968426
0.968495
0.968613
0.968763
0.968919
0.969059
0.969171
0.969251
0.969306
0.96934
0.969357
0.969357
0.969341
0.969307
0.969252
0.969171
0.96906
0.968919
0.968763
0.968613
0.968496
0.968427
0.968417
0.968437
0.968478
0.968475
0.968481
0.968486
0.968443
0.968425
0.968439
0.968516
0.968647
0.968813
0.968987
0.969143
0.969269
0.969363
0.969427
0.969468
0.969489
0.969489
0.969469
0.969428
0.969363
0.96927
0.969144
0.968987
0.968814
0.968648
0.968517
0.968441
0.968427
0.968446
0.968489
0.968484
0.968471
0.968479
0.968438
0.968423
0.968441
0.968526
0.968667
0.968847
0.969036
0.969208
0.969348
0.969453
0.969527
0.969574
0.969597
0.969597
0.969574
0.969527
0.969454
0.969349
0.969209
0.969037
0.968848
0.968668
0.968527
0.968443
0.968425
0.968441
0.968483
0.968475
0.968438
0.968451
0.968414
0.968404
0.968429
0.968521
0.968672
0.968864
0.969065
0.969249
0.969401
0.969515
0.969595
0.969646
0.969671
0.969672
0.969646
0.969595
0.969515
0.969401
0.96925
0.969066
0.968864
0.968673
0.968522
0.96843
0.968406
0.968416
0.968454
0.968442
0.968384
0.968403
0.968372
0.96837
0.968404
0.968505
0.968665
0.968866
0.969077
0.96927
0.969429
0.969549
0.969634
0.969688
0.969714
0.969714
0.969688
0.969635
0.96955
0.96943
0.969271
0.969078
0.968867
0.968666
0.968506
0.968405
0.968372
0.968374
0.968406
0.968387
0.968314
0.968341
0.968317
0.968326
0.96837
0.968481
0.96865
0.968859
0.969077
0.969276
0.969441
0.969564
0.969651
0.969707
0.969733
0.969733
0.969707
0.969652
0.969565
0.969441
0.969277
0.969078
0.96886
0.968651
0.968482
0.968371
0.968327
0.968319
0.968343
0.968317
0.968233
0.968268
0.968254
0.968275
0.96833
0.968451
0.968628
0.968844
0.969068
0.969272
0.969439
0.969565
0.969654
0.969709
0.969736
0.969736
0.96971
0.969654
0.969566
0.96944
0.969273
0.969069
0.968845
0.968629
0.968452
0.968331
0.968276
0.968256
0.968271
0.968235
0.968145
0.968191
0.968187
0.96822
0.968286
0.968417
0.968601
0.968822
0.969051
0.969258
0.969427
0.969554
0.969643
0.969699
0.969726
0.969726
0.969699
0.969643
0.969555
0.969428
0.969259
0.969052
0.968823
0.968602
0.968418
0.968287
0.968221
0.968188
0.968193
0.968147
0.968054
0.96811
0.968116
0.968162
0.968239
0.968378
0.968568
0.968793
0.969024
0.969233
0.969403
0.96953
0.969618
0.969674
0.9697
0.969701
0.969674
0.969619
0.969531
0.969404
0.969235
0.969025
0.968794
0.968569
0.968379
0.96824
0.968163
0.968117
0.968112
0.968056
0.967962
0.968028
0.968043
0.9681
0.968188
0.968334
0.968528
0.968755
0.968988
0.969197
0.969367
0.969492
0.969579
0.969633
0.969659
0.969659
0.969633
0.96958
0.969493
0.969368
0.969199
0.968989
0.968756
0.968529
0.968335
0.968189
0.968101
0.968044
0.968029
0.967963
0.967869
0.967944
0.967968
0.968035
0.968131
0.968283
0.96848
0.968708
0.96894
0.969149
0.969318
0.969442
0.969525
0.969577
0.969601
0.969601
0.969577
0.969526
0.969443
0.969319
0.969151
0.968941
0.968709
0.968481
0.968284
0.968132
0.968036
0.967968
0.967945
0.967869
0.967775
0.96786
0.967889
0.967965
0.968068
0.968224
0.968422
0.96865
0.96888
0.969089
0.969257
0.969378
0.969459
0.969507
0.969529
0.969529
0.969507
0.969459
0.969379
0.969258
0.96909
0.968882
0.968651
0.968423
0.968225
0.968069
0.967966
0.96789
0.96786
0.967776
0.967682
0.967775
0.967809
0.967891
0.967998
0.968156
0.968354
0.96858
0.968808
0.969015
0.969182
0.969302
0.96938
0.969426
0.969446
0.969446
0.969426
0.969381
0.969303
0.969183
0.969016
0.96881
0.968581
0.968355
0.968157
0.967999
0.967891
0.967809
0.967775
0.967683
0.967593
0.967691
0.967728
0.967814
0.967923
0.968081
0.968276
0.968498
0.968723
0.968928
0.969093
0.969213
0.969291
0.969335
0.969355
0.969355
0.969336
0.969291
0.969214
0.969094
0.968929
0.968725
0.968499
0.968277
0.968082
0.967924
0.967815
0.967728
0.967691
0.967592
0.967508
0.967611
0.96765
0.967738
0.967846
0.968001
0.96819
0.968407
0.968627
0.968827
0.968991
0.96911
0.969189
0.969235
0.969255
0.969256
0.969236
0.96919
0.969112
0.968992
0.968829
0.968629
0.968408
0.968191
0.968001
0.967847
0.967738
0.96765
0.967611
0.967508
0.967432
0.967539
0.967579
0.967667
0.967772
0.96792
0.968101
0.968309
0.968522
0.968717
0.968878
0.968997
0.969078
0.969125
0.969147
0.969147
0.969126
0.969079
0.968999
0.96888
0.968719
0.968524
0.96831
0.968102
0.967921
0.967772
0.967667
0.967578
0.967539
0.967431
0.967366
0.967476
0.967515
0.967603
0.967704
0.967844
0.968013
0.968209
0.968413
0.968602
0.968759
0.968877
0.968958
0.969007
0.96903
0.96903
0.969007
0.968959
0.968878
0.96876
0.968603
0.968414
0.96821
0.968014
0.967844
0.967704
0.967603
0.967515
0.967475
0.967365
0.967309
0.967421
0.967461
0.967548
0.967644
0.967775
0.96793
0.968112
0.968305
0.968486
0.968638
0.968754
0.968834
0.968883
0.968906
0.968906
0.968884
0.968835
0.968755
0.968639
0.968487
0.968306
0.968114
0.967931
0.967775
0.967644
0.967548
0.96746
0.96742
0.967307
0.967259
0.967373
0.967413
0.967501
0.967593
0.967715
0.967857
0.968023
0.968201
0.968373
0.96852
0.968632
0.96871
0.968757
0.96878
0.96878
0.968758
0.968711
0.968633
0.968521
0.968374
0.968203
0.968024
0.967858
0.967716
0.967594
0.9675
0.967412
0.967372
0.967257
0.967213
0.967329
0.96737
0.967459
0.96755
0.967664
0.967793
0.967943
0.968107
0.968267
0.968406
0.968514
0.968589
0.968634
0.968654
0.968654
0.968634
0.96859
0.968516
0.968408
0.968268
0.968108
0.967945
0.967794
0.967665
0.96755
0.967458
0.967369
0.967327
0.967211
0.967166
0.967284
0.967328
0.967419
0.96751
0.96762
0.967738
0.967874
0.968022
0.968169
0.9683
0.968402
0.968473
0.968514
0.968533
0.968533
0.968515
0.968474
0.968403
0.968301
0.968171
0.968023
0.967875
0.967739
0.967621
0.96751
0.967418
0.967327
0.967282
0.967164
0.967117
0.967238
0.967285
0.967379
0.967472
0.96758
0.967691
0.967814
0.967947
0.96808
0.9682
0.968296
0.968362
0.968401
0.968418
0.968418
0.968402
0.968363
0.968297
0.968202
0.968082
0.967948
0.967815
0.967692
0.967581
0.967472
0.967378
0.967283
0.967236
0.967115
0.967065
0.967189
0.96724
0.967339
0.967436
0.967543
0.967648
0.967761
0.96788
0.967999
0.968108
0.968197
0.968259
0.968296
0.968312
0.968312
0.968296
0.96826
0.968198
0.96811
0.968001
0.967881
0.967762
0.967649
0.967543
0.967435
0.967337
0.967238
0.967186
0.967062
0.967007
0.967136
0.967192
0.967297
0.967398
0.967507
0.967608
0.967712
0.967818
0.967925
0.968023
0.968105
0.968164
0.9682
0.968216
0.968216
0.968201
0.968165
0.968107
0.968025
0.967927
0.96782
0.967713
0.967609
0.967507
0.967397
0.967295
0.967189
0.967133
0.967004
0.966945
0.967077
0.96714
0.967253
0.96736
0.967471
0.967569
0.967665
0.96776
0.967855
0.967944
0.968021
0.968079
0.968115
0.968132
0.968132
0.968116
0.96808
0.968023
0.967946
0.967857
0.967762
0.967666
0.96757
0.96747
0.967359
0.967251
0.967137
0.967074
0.966941
0.966874
0.967013
0.967083
0.967204
0.967319
0.967433
0.96753
0.967618
0.967703
0.967787
0.967869
0.967943
0.968001
0.968039
0.968058
0.968058
0.96804
0.968002
0.967945
0.967871
0.967789
0.967705
0.96762
0.96753
0.967432
0.967318
0.967202
0.96708
0.967009
0.966871
0.966795
0.966939
0.967019
0.967151
0.967274
0.967391
0.967487
0.96757
0.967646
0.96772
0.967795
0.967868
0.967929
0.967971
0.967993
0.967993
0.967972
0.96793
0.96787
0.967798
0.967722
0.967647
0.967572
0.967488
0.96739
0.967272
0.967148
0.967015
0.966936
0.966791
0.966703
0.966854
0.966945
0.967089
0.967222
0.967344
0.967441
0.96752
0.967587
0.967652
0.967721
0.967793
0.967859
0.967907
0.967932
0.967933
0.967908
0.967861
0.967796
0.967724
0.967654
0.967589
0.967521
0.967441
0.967343
0.96722
0.967086
0.966942
0.966851
0.9667
0.966599
0.966757
0.966861
0.967019
0.967162
0.967291
0.967391
0.967468
0.967528
0.967584
0.967647
0.967719
0.967789
0.967845
0.967875
0.967875
0.967846
0.967792
0.967722
0.96765
0.967586
0.967529
0.967469
0.967391
0.96729
0.96716
0.967016
0.966858
0.966754
0.966596
0.966481
0.966647
0.966766
0.96694
0.967096
0.967232
0.967336
0.967413
0.967469
0.967518
0.967575
0.967646
0.967721
0.967783
0.967819
0.967819
0.967785
0.967723
0.967649
0.967578
0.967521
0.967471
0.967415
0.967336
0.967231
0.967094
0.966937
0.966763
0.966644
0.966478
0.966349
0.966522
0.966659
0.966853
0.967025
0.96717
0.967279
0.967359
0.967414
0.967458
0.967509
0.967577
0.967655
0.967723
0.967764
0.967764
0.967725
0.967657
0.96758
0.967512
0.967461
0.967416
0.96736
0.967279
0.967168
0.967022
0.96685
0.966656
0.966519
0.966346
0.966201
0.966382
0.96654
0.966758
0.966949
0.967106
0.967222
0.967306
0.967363
0.967405
0.967452
0.967515
0.967593
0.967666
0.96771
0.967711
0.967668
0.967596
0.967519
0.967455
0.967408
0.967365
0.967307
0.967221
0.967104
0.966946
0.966755
0.966538
0.96638
0.966198
0.966036
0.966226
0.966407
0.966653
0.96687
0.967044
0.967167
0.967256
0.967317
0.967361
0.967406
0.967465
0.967539
0.967611
0.967657
0.967658
0.967613
0.967542
0.967468
0.967409
0.967364
0.96732
0.967257
0.967167
0.967041
0.966867
0.96665
0.966405
0.966224
0.966034
0.965856
0.966054
0.966259
0.966537
0.966786
0.966984
0.967119
0.967213
0.967277
0.967324
0.967369
0.967424
0.967492
0.96756
0.967604
0.967605
0.967562
0.967496
0.967428
0.967373
0.967328
0.96728
0.967214
0.967118
0.966981
0.966784
0.966534
0.966257
0.966052
0.965854
0.965661
0.965867
0.966096
0.966407
0.966696
0.966925
0.967079
0.967179
0.967244
0.967293
0.967338
0.96739
0.96745
0.967509
0.967548
0.967549
0.967512
0.967454
0.967394
0.967343
0.967296
0.967247
0.967179
0.967077
0.966923
0.966693
0.966405
0.966094
0.965865
0.96566
0.965456
0.96567
0.965921
0.966266
0.966597
0.966865
0.967046
0.967156
0.967221
0.967266
0.967308
0.967355
0.967407
0.967455
0.967485
0.967486
0.967458
0.967411
0.96736
0.967313
0.967269
0.967223
0.967156
0.967044
0.966863
0.966594
0.966264
0.96592
0.965668
0.965456
0.965249
0.965469
0.965741
0.966117
0.966488
0.966801
0.967017
0.967145
0.967212
0.967247
0.967277
0.967314
0.967355
0.967391
0.967413
0.967414
0.967394
0.967359
0.967319
0.967282
0.96725
0.967213
0.967145
0.967015
0.966799
0.966486
0.966115
0.96574
0.965468
0.965248
0.965043
0.965271
0.965561
0.965964
0.966372
0.966729
0.966988
0.967143
0.967216
0.967239
0.967249
0.967266
0.967291
0.967314
0.967328
0.967329
0.967317
0.967296
0.967272
0.967254
0.967242
0.967216
0.967142
0.966986
0.966727
0.96637
0.965962
0.965559
0.96527
0.965043
0.964844
0.965079
0.965385
0.965811
0.966251
0.966649
0.966951
0.967141
0.967228
0.967244
0.967229
0.967217
0.967218
0.967225
0.967231
0.967233
0.967229
0.967223
0.967222
0.967233
0.967246
0.967228
0.967139
0.966949
0.966646
0.96625
0.96581
0.965384
0.965079
0.964844
0.964653
0.964895
0.965215
0.965662
0.966128
0.966559
0.966901
0.967129
0.96724
0.967256
0.96722
0.967174
0.967143
0.967131
0.967128
0.967129
0.967134
0.967148
0.967178
0.967223
0.967258
0.96724
0.967127
0.966899
0.966557
0.966126
0.96566
0.965215
0.964895
0.964653
0.964469
0.964718
0.965051
0.965515
0.966003
0.96646
0.966836
0.967099
0.967239
0.967265
0.967216
0.96714
0.967075
0.967037
0.967022
0.967023
0.96704
0.967079
0.967143
0.967219
0.967266
0.967238
0.967097
0.966833
0.966458
0.966001
0.965514
0.965051
0.964718
0.964469
0.964291
0.964546
0.964889
0.965368
0.965876
0.966354
0.966755
0.967047
0.967215
0.967259
0.967208
0.967111
0.967014
0.966948
0.966918
0.966919
0.966951
0.967017
0.967113
0.96721
0.967259
0.967214
0.967045
0.966752
0.966352
0.965874
0.965367
0.964889
0.964546
0.964292
0.964118
0.964376
0.964728
0.96522
0.965744
0.96624
0.96666
0.966974
0.967164
0.967227
0.967185
0.967078
0.966958
0.966864
0.966817
0.966817
0.966866
0.96696
0.967079
0.967185
0.967227
0.967163
0.966971
0.966657
0.966238
0.965742
0.965219
0.964728
0.964377
0.964118
0.963947
0.964208
0.964566
0.965068
0.965606
0.966119
0.966554
0.966883
0.967089
0.967168
0.967137
0.967031
0.966898
0.966784
0.966721
0.966721
0.966785
0.966899
0.967032
0.967137
0.967167
0.967087
0.96688
0.966551
0.966116
0.965604
0.965067
0.964566
0.964209
0.963948
0.963777
0.96404
0.964401
0.964911
0.965461
0.965989
0.966439
0.966779
0.966995
0.967085
0.967064
0.966964
0.966828
0.966704
0.966631
0.966631
0.966704
0.966829
0.966965
0.967064
0.967083
0.966992
0.966776
0.966436
0.965986
0.96546
0.96491
0.964401
0.96404
0.963777
0.963605
0.963869
0.964232
0.964747
0.965308
0.96585
0.966314
0.966665
0.966889
0.966985
0.966972
0.966879
0.966748
0.966623
0.966549
0.966549
0.966623
0.966748
0.966879
0.966971
0.966982
0.966885
0.966662
0.966311
0.965847
0.965307
0.964747
0.964232
0.963869
0.963606
0.96343
0.963694
0.964058
0.964577
0.965146
0.9657
0.966178
0.966541
0.966773
0.966875
0.966867
0.966782
0.966659
0.966541
0.966471
0.966471
0.966541
0.966658
0.966781
0.966865
0.966871
0.966769
0.966537
0.966175
0.965697
0.965144
0.964576
0.964058
0.963694
0.963431
0.963252
0.963515
0.963878
0.964398
0.964973
0.965538
0.96603
0.966406
0.966649
0.966759
0.966758
0.96668
0.966565
0.966458
0.966394
0.966394
0.966457
0.966564
0.966677
0.966755
0.966754
0.966644
0.966402
0.966026
0.965535
0.964972
0.964398
0.963878
0.963515
0.963253
0.963073
0.963334
0.963695
0.964214
0.964792
0.965363
0.965867
0.966258
0.966516
0.966638
0.966646
0.966576
0.96647
0.96637
0.966312
0.966312
0.96637
0.966468
0.966573
0.966642
0.966633
0.966511
0.966254
0.965863
0.965361
0.96479
0.964214
0.963695
0.963334
0.963074
0.962898
0.963156
0.963513
0.964028
0.964603
0.965178
0.965691
0.966097
0.966372
0.966511
0.966533
0.966471
0.966371
0.966276
0.966221
0.96622
0.966275
0.966369
0.966468
0.966528
0.966506
0.966367
0.966092
0.965687
0.965176
0.964602
0.964027
0.963513
0.963156
0.962898
0.962731
0.962985
0.963335
0.963842
0.964411
0.964984
0.965503
0.965923
0.966217
0.966375
0.966412
0.966361
0.966266
0.966174
0.966119
0.966119
0.966172
0.966263
0.966356
0.966407
0.966369
0.966211
0.965918
0.9655
0.964982
0.964409
0.963841
0.963335
0.962985
0.962731
0.962575
0.962823
0.963164
0.963659
0.964217
0.964785
0.965306
0.965738
0.966049
0.966226
0.96628
0.96624
0.966152
0.966063
0.96601
0.966009
0.966061
0.966149
0.966235
0.966274
0.966221
0.966044
0.965733
0.965303
0.964783
0.964216
0.963658
0.963164
0.962823
0.962574
0.962429
0.96267
0.963
0.96348
0.964024
0.964582
0.965103
0.965543
0.96587
0.966064
0.966133
0.966106
0.966028
0.965946
0.965895
0.965894
0.965943
0.966024
0.966101
0.966128
0.966059
0.965865
0.965539
0.9651
0.96458
0.964022
0.963479
0.963
0.96267
0.962428
0.962291
0.962525
0.962842
0.963305
0.963831
0.964378
0.964895
0.96534
0.965679
0.965889
0.965974
0.965962
0.965896
0.965824
0.965779
0.965778
0.965822
0.965893
0.965957
0.965968
0.965884
0.965674
0.965336
0.964892
0.964376
0.96383
0.963304
0.962842
0.962525
0.962291
0.96216
0.962385
0.962689
0.963133
0.963641
0.964173
0.964684
0.965131
0.96548
0.965705
0.965807
0.965812
0.965762
0.965702
0.965664
0.965663
0.9657
0.965759
0.965807
0.965802
0.965699
0.965475
0.965128
0.964681
0.964171
0.96364
0.963132
0.962688
0.962385
0.96216
0.962034
0.96225
0.962541
0.962966
0.963455
0.963971
0.964472
0.964919
0.965276
0.965517
0.965639
0.965664
0.965632
0.965584
0.965552
0.965552
0.965582
0.965629
0.96566
0.965634
0.965512
0.965272
0.964916
0.96447
0.963969
0.963454
0.962965
0.96254
0.962249
0.962034
0.961915
0.962122
0.9624
0.962808
0.963277
0.963776
0.964265
0.964709
0.965075
0.965333
0.965478
0.965526
0.965512
0.965476
0.965449
0.965448
0.965473
0.965508
0.965522
0.965474
0.965329
0.965072
0.964707
0.964264
0.963775
0.963276
0.962807
0.9624
0.962121
0.961914
0.961807
0.962005
0.962272
0.962663
0.963113
0.963593
0.96407
0.96451
0.964883
0.96516
0.96533
0.965401
0.965406
0.965381
0.965359
0.965358
0.965378
0.965402
0.965398
0.965326
0.965157
0.964881
0.964509
0.964069
0.963593
0.963112
0.962662
0.962272
0.962004
0.961806
0.961715
0.961905
0.962162
0.962537
0.962969
0.963431
0.963894
0.96433
0.96471
0.965004
0.965197
0.965293
0.965316
0.965304
0.965288
0.965287
0.965301
0.965313
0.965289
0.965194
0.965002
0.964709
0.964329
0.963894
0.963431
0.962969
0.962537
0.962162
0.961905
0.961715
0.961646
0.961828
0.962076
0.962437
0.962851
0.963297
0.963747
0.964177
0.964561
0.964869
0.965082
0.9652
0.965244
0.965248
0.965241
0.96524
0.965246
0.965241
0.965196
0.965079
0.964867
0.964561
0.964177
0.963747
0.963298
0.962852
0.962437
0.962077
0.961828
0.961646
0.961602
0.961777
0.962019
0.962367
0.962768
0.963198
0.963636
0.964058
0.964442
0.964756
0.964984
0.965122
0.96519
0.965214
0.965219
0.965218
0.965212
0.965187
0.965119
0.964981
0.964755
0.964442
0.964059
0.963637
0.9632
0.962769
0.962368
0.96202
0.961778
0.961603
0.961585
0.961755
0.961994
0.962334
0.962725
0.963142
0.963565
0.963976
0.964352
0.964666
0.964903
0.96506
0.965153
0.965201
0.965221
0.96522
0.965199
0.96515
0.965057
0.964901
0.964666
0.964352
0.963977
0.963567
0.963143
0.962726
0.962335
0.961995
0.961756
0.961585
0.961595
0.961764
0.962003
0.96234
0.962723
0.963127
0.963534
0.963927
0.96429
0.964598
0.964839
0.965013
0.965132
0.965205
0.965241
0.96524
0.965203
0.965129
0.965011
0.964838
0.964597
0.964291
0.963929
0.963536
0.963129
0.962724
0.962341
0.962004
0.961765
0.961596
0.961638
0.961806
0.962049
0.962384
0.96276
0.963148
0.963535
0.963906
0.96425
0.964548
0.964792
0.964982
0.965124
0.965221
0.965271
0.96527
0.965219
0.965122
0.96498
0.964791
0.964548
0.964251
0.963908
0.963537
0.96315
0.962762
0.962386
0.96205
0.961808
0.961639
0.961719
0.961888
0.962134
0.962467
0.962831
0.963199
0.963559
0.963903
0.964226
0.964513
0.96476
0.964963
0.965126
0.965243
0.965304
0.965303
0.965241
0.965124
0.964962
0.964759
0.964514
0.964227
0.963905
0.963561
0.963201
0.962833
0.962468
0.962136
0.961889
0.96172
0.961845
0.962012
0.962259
0.962583
0.962929
0.96327
0.963599
0.963914
0.964214
0.964491
0.96474
0.964956
0.965134
0.965265
0.965334
0.965334
0.965264
0.965133
0.964954
0.964739
0.964492
0.964216
0.963916
0.963602
0.963273
0.962931
0.962585
0.96226
0.962013
0.961846
0.962012
0.962175
0.962417
0.962727
0.963051
0.96336
0.963654
0.963937
0.964213
0.964479
0.96473
0.964957
0.965148
0.965288
0.965361
0.965361
0.965286
0.965147
0.964956
0.96473
0.964481
0.964215
0.963939
0.963657
0.963362
0.963053
0.962729
0.962419
0.962176
0.962013
0.962208
0.962365
0.962599
0.962891
0.96319
0.963467
0.963725
0.963974
0.964226
0.96448
0.964731
0.964967
0.965168
0.965314
0.96539
0.96539
0.965313
0.965167
0.964966
0.964732
0.964481
0.964228
0.963977
0.963728
0.963469
0.963192
0.962893
0.9626
0.962366
0.96221
0.962412
0.962561
0.962787
0.963064
0.96334
0.963588
0.963813
0.964029
0.964254
0.964493
0.964742
0.964985
0.965196
0.96535
0.96543
0.965429
0.965349
0.965195
0.964984
0.964743
0.964494
0.964256
0.964031
0.963816
0.96359
0.963342
0.963065
0.962789
0.962563
0.962413
0.962599
0.962744
0.962965
0.963231
0.963492
0.963717
0.963913
0.964097
0.964294
0.964515
0.96476
0.965009
0.965232
0.965397
0.965483
0.965483
0.965396
0.965231
0.965009
0.964761
0.964517
0.964296
0.964099
0.963916
0.963719
0.963494
0.963233
0.962967
0.962746
0.962601
0.962756
0.962899
0.96312
0.963382
0.963636
0.963845
0.964016
0.96417
0.964339
0.964542
0.96478
0.965034
0.96527
0.96545
0.965546
0.965546
0.96545
0.96527
0.965034
0.96478
0.964542
0.964341
0.964173
0.964019
0.963847
0.963638
0.963384
0.963122
0.9629
0.962757
0.962878
0.96302
0.963247
0.963512
0.963764
0.963961
0.964111
0.964237
0.964379
0.964562
0.964792
0.965052
0.965303
0.9655
0.965609
0.965608
0.9655
0.965302
0.965051
0.964792
0.964562
0.964381
0.96424
0.964114
0.963963
0.963766
0.963514
0.963249
0.963021
0.962879
0.962969
0.963111
0.963349
0.963619
0.963873
0.964059
0.96419
0.96429
0.964405
0.964568
0.96479
0.965054
0.965319
0.965534
0.965654
0.965654
0.965534
0.965318
0.965053
0.96479
0.964568
0.964406
0.964291
0.964192
0.964061
0.963874
0.963621
0.96335
0.963112
0.96297
0.963042
0.963184
0.963431
0.963707
0.963961
0.964138
0.964249
0.964323
0.964412
0.964555
0.964769
0.965035
0.965311
0.96554
0.96567
0.96567
0.96554
0.965311
0.965034
0.964768
0.964555
0.964413
0.964324
0.964251
0.964139
0.963963
0.963708
0.963432
0.963184
0.963043
0.963107
0.963247
0.963502
0.96378
0.964033
0.964198
0.964291
0.964339
0.964402
0.964525
0.964728
0.964994
0.965278
0.965515
0.965649
0.965649
0.965515
0.965277
0.964994
0.964727
0.964524
0.964403
0.96434
0.964292
0.9642
0.964034
0.963781
0.963503
0.963247
0.963108
0.963173
0.963308
0.963566
0.963842
0.96409
0.964244
0.964318
0.964342
0.964379
0.96448
0.964671
0.964934
0.965218
0.965457
0.965593
0.965593
0.965457
0.965218
0.964933
0.96467
0.96448
0.964379
0.964343
0.96432
0.964245
0.964091
0.963843
0.963568
0.963309
0.963174
0.963243
0.96337
0.963628
0.963896
0.964135
0.964276
0.964333
0.964335
0.964347
0.964425
0.964601
0.964855
0.965135
0.965372
0.965505
0.965505
0.965371
0.965135
0.964854
0.9646
0.964425
0.964346
0.964335
0.964334
0.964278
0.964137
0.963897
0.96363
0.963372
0.963245
0.963318
0.963435
0.963688
0.963942
0.964169
0.964295
0.964336
0.964318
0.964307
0.964364
0.964521
0.964761
0.965031
0.965262
0.965393
0.965393
0.965261
0.965031
0.96476
0.96452
0.964363
0.964307
0.964318
0.964337
0.964297
0.964171
0.963944
0.96369
0.963437
0.96332
0.963396
0.963501
0.963746
0.963982
0.964193
0.964301
0.964326
0.964291
0.964262
0.964298
0.964433
0.964653
0.964909
0.965132
0.96526
0.965259
0.965131
0.964908
0.964652
0.964432
0.964297
0.964262
0.964291
0.964327
0.964303
0.964195
0.963984
0.963748
0.963503
0.963398
0.963472
0.963564
0.9638
0.964015
0.964205
0.964293
0.964303
0.964254
0.96421
0.964227
0.964339
0.964534
0.964772
0.964984
0.965109
0.965108
0.964983
0.96477
0.964533
0.964338
0.964227
0.96421
0.964254
0.964304
0.964295
0.964207
0.964017
0.963802
0.963566
0.963475
0.963547
0.963623
0.963848
0.96404
0.964207
0.964273
0.964267
0.964206
0.964151
0.964152
0.96424
0.964409
0.964623
0.964821
0.964941
0.96494
0.96482
0.964621
0.964407
0.964238
0.964151
0.964151
0.964206
0.964268
0.964275
0.96421
0.964043
0.963851
0.963625
0.96355
0.96362
0.963677
0.963892
0.964058
0.9642
0.964242
0.964219
0.964146
0.964083
0.96407
0.964136
0.964277
0.964465
0.964644
0.964754
0.964754
0.964643
0.964463
0.964275
0.964135
0.964069
0.964083
0.964147
0.964221
0.964245
0.964203
0.964061
0.963895
0.96368
0.963623
0.963692
0.963729
0.963932
0.964072
0.964188
0.964205
0.964163
0.964077
0.964005
0.963981
0.964027
0.964141
0.964299
0.964452
0.964547
0.964546
0.96445
0.964296
0.964139
0.964026
0.963979
0.964005
0.964078
0.964164
0.964207
0.964192
0.964075
0.963935
0.963732
0.963695
0.963763
0.963779
0.963971
0.964085
0.964175
0.964165
0.964101
0.964001
0.963919
0.963883
0.963912
0.963998
0.964121
0.96424
0.964314
0.964314
0.964239
0.964118
0.963995
0.963909
0.963881
0.963918
0.964002
0.964103
0.964167
0.964179
0.964088
0.963975
0.963783
0.963767
0.963835
0.963829
0.964011
0.9641
0.964165
0.964126
0.96404
0.963921
0.963826
0.963777
0.963787
0.963843
0.963927
0.964005
0.964053
0.964052
0.964004
0.963924
0.96384
0.963784
0.963775
0.963825
0.963922
0.964042
0.964129
0.964169
0.964104
0.964015
0.963833
0.963839
0.963909
0.963879
0.964053
0.964119
0.96416
0.964093
0.963981
0.96384
0.963729
0.963664
0.963651
0.963673
0.96371
0.963742
0.963759
0.963759
0.96374
0.963707
0.963669
0.963647
0.963661
0.963728
0.963841
0.963982
0.964096
0.964164
0.964123
0.964057
0.963883
0.963913
0.963987
0.963932
0.964099
0.964144
0.964161
0.964065
0.963926
0.963763
0.963632
0.963545
0.963501
0.963481
0.963466
0.963448
0.963433
0.963432