# vtk DataFile Version 3.0
Grid data
ASCII
DATASET STRUCTURED_POINTS
DIMENSIONS 30 300 1
ORIGIN 0 0 0
SPACING 0.00833333 0.00333333 1
POINT_DATA 9000
SCALARS rho double
LOOKUP_TABLE default
0.976016
0.975987
0.975905
0.975735
0.975428
0.974953
0.974396
0.973999
0.97372
0.973585
0.973623
0.97385
0.974191
0.974501
0.974666
0.974665
0.974499
0.974188
0.973847
0.97362
0.973581
0.973717
0.973996
0.974393
0.974952
0.97543
0.975737
0.975909
0.975991
0.976023
0.974944
0.974895
0.974765
0.974508
0.974144
0.973785
0.973476
0.973059
0.972833
0.972833
0.973007
0.973324
0.973709
0.974041
0.97422
0.974219
0.974039
0.973705
0.97332
0.973003
0.972829
0.97283
0.973056
0.973474
0.973784
0.974145
0.974512
0.974773
0.974905
0.974956
0.974793
0.974719
0.97454
0.974228
0.973824
0.973414
0.973054
0.972681
0.972515
0.972627
0.972913
0.973288
0.973662
0.973942
0.974076
0.974075
0.973939
0.973658
0.973284
0.972909
0.972623
0.972511
0.972678
0.973052
0.973413
0.973824
0.974231
0.974547
0.974729
0.974805
0.97506
0.974949
0.974702
0.974303
0.973804
0.97332
0.972978
0.972735
0.972692
0.972918
0.973285
0.973695
0.974051
0.974284
0.974382
0.97438
0.97428
0.974046
0.97369
0.973281
0.972914
0.972689
0.972732
0.972977
0.973319
0.973804
0.974305
0.974708
0.974958
0.975071
0.975484
0.975337
0.975027
0.974564
0.974023
0.973513
0.973141
0.972961
0.973014
0.97334
0.973797
0.974242
0.974577
0.974766
0.974836
0.974834
0.974762
0.974572
0.974236
0.973792
0.973335
0.973011
0.972959
0.973139
0.973512
0.974022
0.974565
0.975031
0.975343
0.975492
0.975835
0.975655
0.975292
0.974771
0.974189
0.973668
0.973326
0.973238
0.973395
0.973807
0.974336
0.97481
0.975135
0.975298
0.975349
0.975347
0.975293
0.975129
0.974803
0.974331
0.973803
0.973392
0.973236
0.973325
0.973668
0.974189
0.974772
0.975295
0.975661
0.975841
0.97602
0.975815
0.975416
0.974857
0.974255
0.973744
0.973443
0.973426
0.973682
0.974167
0.974749
0.975247
0.975571
0.975721
0.975764
0.975762
0.975716
0.975564
0.97524
0.974743
0.974163
0.973679
0.973424
0.973442
0.973743
0.974256
0.974858
0.975419
0.97582
0.976026
0.976
0.975773
0.975349
0.974766
0.974157
0.973662
0.973411
0.973473
0.973823
0.974375
0.974993
0.975508
0.975833
0.975982
0.976024
0.976021
0.975976
0.975826
0.9755
0.974987
0.97437
0.97382
0.973471
0.973409
0.973661
0.974158
0.974767
0.975351
0.975776
0.976004
0.975816
0.975568
0.975125
0.974529
0.973927
0.973462
0.973264
0.973399
0.973825
0.97443
0.975073
0.975597
0.975926
0.976078
0.976123
0.976121
0.976072
0.975919
0.97559
0.975066
0.974425
0.973822
0.973396
0.973263
0.973461
0.973927
0.97453
0.975127
0.975571
0.97582
0.975539
0.97527
0.974811
0.974208
0.97362
0.973195
0.97306
0.973268
0.97376
0.974406
0.975062
0.975589
0.975919
0.976077
0.976128
0.976126
0.976071
0.975911
0.975581
0.975055
0.974401
0.973756
0.973266
0.973058
0.973194
0.97362
0.974209
0.974813
0.975273
0.975543
0.975239
0.974951
0.974482
0.973879
0.973314
0.972937
0.972873
0.973152
0.973694
0.974369
0.975029
0.975552
0.975884
0.976052
0.976113
0.976111
0.976045
0.975875
0.975544
0.975021
0.974363
0.97369
0.973149
0.972871
0.972936
0.973314
0.97388
0.974484
0.974954
0.975242
0.974949
0.974647
0.974177
0.973582
0.973049
0.972728
0.972737
0.973082
0.973667
0.974358
0.975013
0.975527
0.975864
0.976053
0.976134
0.976131
0.976046
0.975855
0.975518
0.975005
0.974351
0.973662
0.973078
0.972735
0.972727
0.973049
0.973583
0.974179
0.97465
0.974952
0.97467
0.974359
0.973897
0.973321
0.972829
0.972572
0.972654
0.973058
0.973675
0.974371
0.975012
0.975514
0.97586
0.976079
0.976185
0.976183
0.976073
0.975852
0.975504
0.975003
0.974364
0.97367
0.973054
0.972652
0.97257
0.972829
0.973322
0.973899
0.974362
0.974674
0.974382
0.974067
0.973623
0.973077
0.972635
0.972448
0.972603
0.973058
0.9737
0.97439
0.975007
0.975492
0.975848
0.976093
0.976218
0.976216
0.976087
0.975839
0.975482
0.974998
0.974382
0.973694
0.973055
0.9726
0.972446
0.972635
0.973078
0.973625
0.97407
0.974386
0.974068
0.973754
0.973337
0.972831
0.972448
0.972336
0.972562
0.973064
0.97372
0.974395
0.974981
0.975444
0.975803
0.976062
0.976193
0.976191
0.976056
0.975794
0.975434
0.974971
0.974386
0.973714
0.97306
0.97256
0.972335
0.972448
0.972832
0.973339
0.973757
0.974072
0.973723
0.973415
0.973033
0.972576
0.972261
0.972228
0.972522
0.973065
0.973729
0.974381
0.974931
0.975365
0.975718
0.975987
0.976125
0.976123
0.975982
0.97571
0.975355
0.974921
0.974372
0.973722
0.97306
0.97252
0.972227
0.972261
0.972577
0.973035
0.973418
0.973726
0.973351
0.973055
0.972716
0.972318
0.972078
0.972126
0.972483
0.97306
0.973729
0.974357
0.974864
0.975257
0.975598
0.975887
0.976054
0.976052
0.975883
0.97559
0.975247
0.974854
0.974347
0.97372
0.973055
0.97248
0.972125
0.972079
0.972319
0.972718
0.973058
0.973355
0.972963
0.972683
0.972394
0.972062
0.971906
0.972034
0.972449
0.973055
0.973725
0.974328
0.974789
0.975132
0.975452
0.975764
0.975968
0.975968
0.975761
0.975445
0.975123
0.974778
0.974317
0.973716
0.973049
0.972446
0.972033
0.971906
0.972064
0.972396
0.972686
0.972967
0.972564
0.972305
0.972072
0.971815
0.971747
0.971956
0.972424
0.973054
0.973717
0.974291
0.974711
0.975009
0.975296
0.975593
0.975795
0.975795
0.97559
0.97529
0.975
0.9747
0.97428
0.973708
0.973047
0.972421
0.971954
0.971748
0.971816
0.972074
0.972308
0.972567
0.972156
0.971924
0.971752
0.971576
0.971603
0.971891
0.972409
0.973053
0.973699
0.974239
0.974632
0.974909
0.975148
0.975357
0.975483
0.975483
0.975355
0.975142
0.9749
0.974621
0.974228
0.973689
0.973046
0.972405
0.971889
0.971603
0.971578
0.971755
0.971927
0.972159
0.971741
0.971539
0.971433
0.971345
0.971469
0.971835
0.972398
0.973047
0.973663
0.97417
0.974554
0.97483
0.975011
0.975086
0.975092
0.975091
0.975083
0.975004
0.974821
0.974543
0.974158
0.973653
0.973039
0.972394
0.971833
0.97147
0.971347
0.971435
0.971542
0.971744
0.97132
0.971151
0.971111
0.971119
0.971342
0.971781
0.972381
0.973028
0.973616
0.974093
0.974469
0.974739
0.974863
0.974837
0.974759
0.974758
0.974834
0.974857
0.97473
0.974458
0.974081
0.973605
0.97302
0.972376
0.971779
0.971342
0.97112
0.971113
0.971153
0.971323
0.970892
0.970758
0.970788
0.970894
0.971217
0.971722
0.972354
0.973001
0.973568
0.974014
0.974352
0.974581
0.974675
0.974649
0.974585
0.974585
0.974647
0.97467
0.974573
0.974341
0.974002
0.973558
0.972993
0.972349
0.97172
0.971216
0.970895
0.970789
0.970761
0.970894
0.970453
0.970358
0.970461
0.970669
0.971089
0.971658
0.972322
0.972971
0.973514
0.973908
0.97417
0.974335
0.974438
0.974509
0.974547
0.974547
0.974509
0.974435
0.974327
0.974159
0.973896
0.973503
0.972962
0.972316
0.971656
0.971088
0.970669
0.970462
0.97036
0.970454
0.969994
0.969942
0.970124
0.970437
0.970954
0.971586
0.972276
0.972916
0.973415
0.973735
0.973912
0.974031
0.974179
0.974369
0.974514
0.974515
0.974371
0.974179
0.974026
0.973902
0.973723
0.973403
0.972907
0.97227
0.971583
0.970953
0.970437
0.970124
0.969942
0.969993
0.969501
0.969495
0.969764
0.970184
0.970795
0.971484
0.972187
0.972794
0.973226
0.973474
0.973609
0.973735
0.97393
0.974176
0.974356
0.974357
0.974179
0.973933
0.973734
0.973602
0.973463
0.973214
0.972783
0.972179
0.971479
0.970793
0.970183
0.969763
0.969493
0.969498
0.96896
0.969001
0.969359
0.969884
0.970582
0.971313
0.97201
0.972568
0.97294
0.973156
0.973311
0.973481
0.973688
0.973891
0.974019
0.97402
0.973894
0.973692
0.973483
0.973309
0.973149
0.972928
0.972555
0.971999
0.971307
0.970578
0.969881
0.969356
0.968997
0.968955
0.968359
0.968446
0.968888
0.969507
0.970279
0.971039
0.971721
0.972242
0.972589
0.972826
0.973032
0.97323
0.973392
0.973488
0.973524
0.973525
0.973491
0.973397
0.973236
0.973035
0.972823
0.97258
0.972229
0.971708
0.971029
0.970272
0.969502
0.968883
0.96844
0.968353
0.967689
0.967819
0.968336
0.969035
0.969867
0.970652
0.971332
0.971846
0.972208
0.972481
0.972713
0.972882
0.972957
0.972947
0.972913
0.972915
0.972951
0.972964
0.97289
0.972719
0.972483
0.972203
0.971836
0.97132
0.97064
0.969858
0.969028
0.96833
0.967812
0.967681
0.966946
0.967118
0.967703
0.968469
0.969355
0.970174
0.970872
0.9714
0.971778
0.972056
0.972252
0.972345
0.972335
0.972267
0.972208
0.97221
0.972273
0.972344
0.972355
0.972262
0.972062
0.971778
0.971394
0.970862
0.970162
0.969344
0.968459
0.967694
0.967109
0.966937
0.966137
0.966352
0.967003
0.967834
0.968775
0.969636
0.970356
0.970885
0.971245
0.971475
0.971594
0.971609
0.971552
0.971474
0.971421
0.971424
0.971481
0.971563
0.971621
0.971606
0.971485
0.97125
0.970884
0.970349
0.969624
0.968762
0.967821
0.966992
0.966341
0.966126
0.965288
0.965551
0.966269
0.967168
0.968166
0.969064
0.969788
0.970285
0.970585
0.97074
0.970786
0.970757
0.970692
0.97063
0.970594
0.970597
0.970639
0.970705
0.970771
0.9708
0.970752
0.970594
0.970288
0.969785
0.969055
0.968154
0.967154
0.966255
0.965538
0.965275
0.964454
0.964768
0.965555
0.966522
0.967572
0.968488
0.969187
0.969623
0.96985
0.969939
0.969947
0.969912
0.969863
0.96982
0.969796
0.969799
0.969828
0.969876
0.969927
0.969962
0.969953
0.969861
0.96963
0.969188
0.968482
0.967561
0.966508
0.965539
0.964752
0.964438
0.963707
0.964071
0.964923
0.965952
0.967037
0.967949
0.968604
0.968976
0.969145
0.9692
0.969203
0.969183
0.969154
0.969126
0.969109
0.969111
0.969134
0.969166
0.969197
0.969218
0.969215
0.969158
0.968985
0.968609
0.967948
0.967029
0.965939
0.964908
0.964054
0.96369
0.963122
0.963529
0.964432
0.965505
0.966606
0.9675
0.96811
0.968433
0.968572
0.96862
0.968634
0.968632
0.968621
0.968604
0.968592
0.968595
0.968611
0.968631
0.968646
0.968649
0.968635
0.968586
0.968445
0.968117
0.967502
0.966602
0.965496
0.964419
0.963515
0.963107
0.962749
0.96319
0.964121
0.965217
0.966318
0.967188
0.967763
0.96806
0.968189
0.968241
0.968265
0.968277
0.968278
0.968274
0.96827
0.968272
0.96828
0.968288
0.968289
0.96828
0.968256
0.968204
0.968073
0.967773
0.967193
0.966318
0.965211
0.964112
0.96318
0.962739
0.962602
0.963067
0.964005
0.965105
0.966194
0.967042
0.967594
0.967879
0.968004
0.968057
0.968086
0.968106
0.968121
0.968131
0.968137
0.968138
0.968136
0.968129
0.968117
0.968099
0.968071
0.968019
0.967892
0.967605
0.967049
0.966196
0.965102
0.964
0.963062
0.962597
0.962663
0.963147
0.964077
0.965168
0.966238
0.967065
0.967602
0.96788
0.968001
0.968051
0.968082
0.968111
0.968141
0.968165
0.96818
0.968181
0.968169
0.968147
0.96812
0.968093
0.968064
0.968015
0.967893
0.967614
0.967073
0.966242
0.965169
0.964076
0.963145
0.962661
0.962908
0.963408
0.964323
0.965398
0.966445
0.96725
0.967773
0.968045
0.968163
0.968213
0.96825
0.968291
0.968335
0.968373
0.968395
0.968396
0.968376
0.96834
0.968298
0.96826
0.968224
0.968175
0.968058
0.967784
0.967258
0.966451
0.965402
0.964325
0.963409
0.962908
0.963326
0.963839
0.964733
0.965786
0.966802
0.967581
0.968091
0.96836
0.96848
0.968537
0.968587
0.968642
0.968701
0.96875
0.968778
0.968779
0.968752
0.968704
0.968648
0.968594
0.968547
0.968491
0.968371
0.968102
0.96759
0.96681
0.965792
0.964737
0.963841
0.963327
0.96391
0.964429
0.965294
0.966317
0.967295
0.968043
0.968539
0.968809
0.968939
0.969011
0.969077
0.969148
0.96922
0.96928
0.969313
0.969314
0.969281
0.969223
0.969152
0.969083
0.969019
0.968948
0.968819
0.968549
0.968052
0.967304
0.966324
0.965299
0.964432
0.963911
0.964642
0.965162
0.965985
0.966968
0.9679
0.968614
0.969096
0.969371
0.969516
0.969607
0.96969
0.969775
0.969858
0.969926
0.969964
0.969965
0.969927
0.96986
0.969778
0.969694
0.969613
0.969523
0.969379
0.969104
0.968622
0.967908
0.966975
0.96599
0.965166
0.964645
0.965479
0.965996
0.966766
0.967698
0.96858
0.969258
0.969728
0.970012
0.970177
0.970289
0.970386
0.970481
0.970571
0.970643
0.970684
0.970684
0.970644
0.970572
0.970483
0.97039
0.970294
0.970184
0.970019
0.969735
0.969265
0.968587
0.967705
0.966772
0.966001
0.965484
0.966355
0.966867
0.967579
0.968455
0.969285
0.969931
0.970393
0.970692
0.970881
0.971012
0.971122
0.971221
0.971311
0.971383
0.971424
0.971424
0.971383
0.971312
0.971223
0.971125
0.971017
0.970886
0.970698
0.970399
0.969936
0.969291
0.96846
0.967584
0.966873
0.966361
0.967194
0.967703
0.968357
0.969179
0.969962
0.97058
0.971041
0.971359
0.971575
0.971729
0.97185
0.97195
0.972036
0.972104
0.972143
0.972143
0.972104
0.972037
0.971952
0.971853
0.971734
0.971581
0.971365
0.971046
0.970585
0.969966
0.969183
0.968362
0.967709
0.967201
0.96794
0.968446
0.969048
0.96982
0.970563
0.971161
0.971624
0.971965
0.972212
0.972391
0.972524
0.972625
0.972706
0.972769
0.972806
0.972806
0.97277
0.972707
0.972627
0.972527
0.972395
0.972217
0.97197
0.971629
0.971165
0.970566
0.969824
0.969053
0.968452
0.967947
0.968563
0.969065
0.969621
0.97035
0.971058
0.971643
0.972112
0.972476
0.972752
0.972955
0.973103
0.973209
0.973288
0.973348
0.973383
0.973383
0.973349
0.97329
0.973211
0.973106
0.972959
0.972756
0.97248
0.972115
0.971646
0.971061
0.970354
0.969626
0.969071
0.968569
0.969064
0.969559
0.970073
0.970762
0.971441
0.972016
0.972492
0.972877
0.973178
0.973403
0.973565
0.973678
0.97376
0.973819
0.973853
0.973853
0.97382
0.973761
0.97368
0.973568
0.973406
0.973181
0.97288
0.972495
0.972019
0.971444
0.970767
0.970079
0.969565
0.969069
0.969458
0.969942
0.970416
0.971067
0.971718
0.972287
0.972773
0.973176
0.973496
0.973736
0.973909
0.974029
0.974115
0.974175
0.974208
0.974208
0.974176
0.974116
0.974031
0.973911
0.973738
0.973498
0.973178
0.972776
0.97229
0.971722
0.971071
0.970421
0.969947
0.969463
0.969762
0.97023
0.970664
0.971276
0.971903
0.972471
0.972969
0.97339
0.973724
0.973971
0.974148
0.974273
0.974362
0.974423
0.974456
0.974456
0.974424
0.974363
0.974275
0.97415
0.973973
0.973725
0.973391
0.972971
0.972474
0.971907
0.97128
0.970669
0.970234
0.969766
0.969987
0.970434
0.970829
0.971401
0.972006
0.972576
0.973091
0.973532
0.973879
0.974129
0.974305
0.97443
0.974522
0.974586
0.97462
0.974621
0.974587
0.974523
0.974432
0.974307
0.97413
0.97388
0.973533
0.973093
0.972579
0.972009
0.971405
0.970832
0.970437
0.96999
0.970142
0.970563
0.970916
0.971448
0.97203
0.972607
0.973144
0.973609
0.973971
0.974225
0.974397
0.97452
0.974615
0.974687
0.974726
0.974726
0.974687
0.974617
0.974521
0.974398
0.974226
0.973972
0.97361
0.973146
0.972609
0.972033
0.971451
0.970919
0.970565
0.970144
0.970237
0.970627
0.970936
0.971425
0.971983
0.972567
0.973129
0.973622
0.974004
0.974265
0.974434
0.974555
0.974656
0.974737
0.974785
0.974785
0.974738
0.974657
0.974557
0.974435
0.974265
0.974005
0.973623
0.97313
0.972568
0.971986
0.971427
0.970938
0.970628
0.970237
0.970283
0.970641
0.970903
0.971344
0.971876
0.972463
0.973048
0.973572
0.973979
0.974252
0.974425
0.974545
0.974648
0.974737
0.974792
0.974792
0.974738
0.974649
0.974546
0.974425
0.974252
0.973979
0.973572
0.973049
0.972464
0.971878
0.971345
0.970903
0.970641
0.970283
0.970297
0.970619
0.970834
0.971226
0.971726
0.972311
0.972914
0.973464
0.973898
0.974192
0.974373
0.974494
0.974595
0.974684
0.97474
0.974741
0.974685
0.974596
0.974494
0.974373
0.974191
0.973898
0.973464
0.972914
0.972312
0.971727
0.971226
0.970834
0.970619
0.970296
0.970288
0.970576
0.970745
0.971088
0.971554
0.972128
0.972739
0.973311
0.973773
0.974092
0.974289
0.974414
0.974511
0.974593
0.974644
0.974644
0.974594
0.974511
0.974413
0.974288
0.97409
0.973772
0.973311
0.972739
0.972129
0.971554
0.971088
0.970745
0.970576
0.970287
0.970262
0.970518
0.970647
0.970943
0.971371
0.971929
0.972541
0.973129
0.973616
0.973965
0.974186
0.974324
0.974422
0.974498
0.974543
0.974543
0.974498
0.974421
0.974323
0.974184
0.973963
0.973615
0.973128
0.97254
0.971929
0.971371
0.970943
0.970647
0.970518
0.970262
0.970222
0.970447
0.97054
0.970792
0.971181
0.97172
0.97233
0.972931
0.973444
0.973825
0.974078
0.97424
0.97435
0.974428
0.974471
0.974471
0.974427
0.974348
0.974237
0.974076
0.973823
0.973442
0.97293
0.972329
0.971719
0.97118
0.970791
0.97054
0.970447
0.970222
0.970171
0.970363
0.970422
0.970631
0.970983
0.971504
0.972113
0.972728
0.973265
0.973677
0.973964
0.974154
0.974285
0.974373
0.974419
0.974418
0.974371
0.974282
0.974152
0.973961
0.973674
0.973262
0.972725
0.972111
0.971502
0.970982
0.97063
0.970421
0.970363
0.970171
0.970106
0.970266
0.970288
0.970455
0.970772
0.971277
0.971886
0.972511
0.973068
0.973505
0.973817
0.97403
0.974177
0.974274
0.974324
0.974323
0.974272
0.974174
0.974027
0.973814
0.973502
0.973065
0.972508
0.971883
0.971275
0.97077
0.970454
0.970288
0.970266
0.970107
0.970007
0.970134
0.97012
0.970245
0.970528
0.971016
0.97162
0.972251
0.972817
0.973266
0.973589
0.97381
0.97396
0.974057
0.974107
0.974106
0.974055
0.973956
0.973806
0.973585
0.973262
0.972813
0.972247
0.971617
0.971013
0.970526
0.970244
0.970119
0.970134
0.970008
0.969814
0.96991
0.969864
0.969951
0.970199
0.970666
0.971258
0.971884
0.97245
0.972899
0.973221
0.973438
0.973581
0.973673
0.97372
0.973718
0.97367
0.973577
0.973433
0.973217
0.972894
0.972445
0.97188
0.971255
0.970662
0.970196
0.969949
0.969863
0.96991
0.969814
0.969437
0.969506
0.969432
0.969485
0.9697
0.970142
0.970717
0.971333
0.971893
0.972341
0.972662
0.972878
0.97302
0.973112
0.973158
0.973157
0.973109
0.973016
0.972873
0.972658
0.972336
0.971889
0.971329
0.970714
0.970138
0.969697
0.969483
0.969431
0.969506
0.969436
0.968799
0.968845
0.968748
0.968772
0.968955
0.969373
0.969932
0.97054
0.9711
0.971555
0.971889
0.972119
0.972276
0.972378
0.972431
0.97243
0.972376
0.972272
0.972115
0.971884
0.97155
0.971095
0.970535
0.969928
0.969369
0.968952
0.968769
0.968746
0.968843
0.968797
0.967907
0.967931
0.967813
0.96781
0.967966
0.968362
0.968909
0.969515
0.970084
0.970558
0.970918
0.971176
0.971356
0.971476
0.971539
0.971538
0.971475
0.971354
0.971173
0.970914
0.970554
0.97008
0.969511
0.968905
0.968359
0.967963
0.967807
0.96781
0.967928
0.967903
0.96687
0.966873
0.966735
0.966706
0.966836
0.967212
0.967748
0.968356
0.968938
0.969433
0.96982
0.970103
0.970304
0.970437
0.970505
0.970505
0.970436
0.970303
0.970102
0.969818
0.96943
0.968934
0.968352
0.967744
0.967208
0.966832
0.966702
0.966731
0.966869
0.966865
0.96586
0.965844
0.965684
0.965629
0.965732
0.966086
0.966609
0.967215
0.967804
0.968314
0.968717
0.969012
0.969218
0.96935
0.969417
0.969417
0.969351
0.969218
0.969012
0.968716
0.968312
0.967801
0.967212
0.966606
0.966082
0.965728
0.965625
0.96568
0.965839
0.965854
0.965052
0.96502
0.964841
0.96476
0.964835
0.965163
0.965666
0.966261
0.966847
0.967359
0.967764
0.968055
0.968251
0.968372
0.968431
0.968431
0.968373
0.968252
0.968056
0.967764
0.967359
0.966846
0.966258
0.965663
0.965159
0.964831
0.964756
0.964837
0.965015
0.965047
0.964584
0.964538
0.964344
0.96424
0.964287
0.964585
0.965062
0.965638
0.966213
0.966718
0.967114
0.967393
0.967573
0.967679
0.967728
0.967728
0.967679
0.967574
0.967394
0.967114
0.966718
0.966213
0.965637
0.96506
0.964582
0.964284
0.964236
0.96434
0.964534
0.96458
0.96452
0.964463
0.964258
0.964134
0.964157
0.964426
0.964876
0.965432
0.965992
0.966488
0.966876
0.967147
0.967316
0.967411
0.967453
0.967453
0.967411
0.967316
0.967147
0.966877
0.966488
0.965993
0.965431
0.964875
0.964425
0.964154
0.964131
0.964255
0.96446
0.964517
0.964854
0.964787
0.964571
0.96443
0.96443
0.964673
0.965098
0.965637
0.966189
0.966682
0.967072
0.967345
0.967515
0.967609
0.96765
0.96765
0.967609
0.967515
0.967346
0.967073
0.966682
0.966189
0.965637
0.965098
0.964672
0.964429
0.964428
0.964569
0.964785
0.964852
0.965529
0.965452
0.965223
0.965062
0.965039
0.965255
0.965657
0.966182
0.96673
0.967229
0.967631
0.967916
0.968096
0.968196
0.96824
0.96824
0.968196
0.968096
0.967916
0.967631
0.967229
0.96673
0.966182
0.965657
0.965255
0.965038
0.965062
0.965222
0.965451
0.965528
0.966469
0.966381
0.966137
0.965953
0.965902
0.966088
0.966464
0.966974
0.96752
0.968026
0.968442
0.968744
0.968938
0.969047
0.969094
0.969094
0.969047
0.968938
0.968744
0.968442
0.968026
0.96752
0.966974
0.966464
0.966088
0.965902
0.965953
0.966137
0.966381
0.966469
0.967585
0.967487
0.967227
0.967019
0.966937
0.96709
0.967437
0.967928
0.968467
0.968978
0.969405
0.969722
0.969928
0.970046
0.970097
0.970097
0.970046
0.969928
0.969722
0.969405
0.968977
0.968466
0.967928
0.967437
0.967091
0.966938
0.967019
0.967228
0.967488
0.967585
0.968781
0.968676
0.968404
0.968174
0.968065
0.968185
0.9685
0.968969
0.969495
0.970005
0.970439
0.970765
0.970981
0.971105
0.97116
0.97116
0.971105
0.970981
0.970765
0.970439
0.970005
0.969495
0.968969
0.9685
0.968185
0.968065
0.968174
0.968404
0.968676
0.968781
0.969963
0.969854
0.969576
0.969331
0.969202
0.969295
0.969582
0.970028
0.970539
0.971043
0.971477
0.971808
0.972029
0.972156
0.972213
0.972213
0.972156
0.972029
0.971808
0.971477
0.971042
0.970539
0.970027
0.969582
0.969295
0.969203
0.969332
0.969576
0.969855
0.969963
0.971055
0.970945
0.970666
0.970415
0.970274
0.970348
0.970612
0.971038
0.971535
0.97203
0.972462
0.972793
0.973015
0.973143
0.973199
0.973199
0.973143
0.973015
0.972793
0.972461
0.97203
0.971535
0.971037
0.970612
0.970348
0.970274
0.970415
0.970666
0.970945
0.971055
0.972012
0.971902
0.971625
0.971371
0.971225
0.971285
0.971533
0.971942
0.972428
0.972916
0.973344
0.973674
0.973895
0.974022
0.974078
0.974078
0.974022
0.973895
0.973674
0.973344
0.972916
0.972428
0.971942
0.971532
0.971285
0.971225
0.971372
0.971625
0.971902
0.972012
0.972831
0.97272
0.972444
0.972188
0.972035
0.972083
0.972315
0.972712
0.97319
0.973673
0.974099
0.974428
0.974649
0.974776
0.974831
0.974831
0.974776
0.974649
0.974428
0.974099
0.973673
0.97319
0.972712
0.972315
0.972083
0.972035
0.972188
0.972444
0.97272
0.972831
0.973543
0.973428
0.97315
0.972887
0.972722
0.972754
0.972969
0.973353
0.973824
0.974306
0.974733
0.975065
0.975289
0.975417
0.975473
0.975473
0.975417
0.975289
0.975065
0.974733
0.974306
0.973824
0.973353
0.972969
0.972754
0.972722
0.972887
0.97315
0.973428
0.973543
0.974188
0.974069
0.973785
0.973509
0.973328
0.973339
0.973533
0.973902
0.974366
0.974848
0.975279
0.975618
0.975848
0.975981
0.97604
0.97604
0.975981
0.975848
0.975618
0.975279
0.974848
0.974366
0.973903
0.973533
0.973339
0.973328
0.973509
0.973785
0.974069
0.974188
0.974797
0.974674
0.974383
0.974094
0.973895
0.973882
0.974053
0.974405
0.974861
0.975342
0.975781
0.976129
0.976369
0.97651
0.976572
0.976572
0.97651
0.976369
0.976129
0.975781
0.975342
0.974861
0.974405
0.974053
0.973882
0.973895
0.974094
0.974383
0.974674
0.974797
0.975386
0.975259
0.974965
0.974665
0.974448
0.974413
0.974562
0.974897
0.975343
0.975824
0.976268
0.976627
0.976878
0.977028
0.977095
0.977095
0.977028
0.976878
0.976627
0.976268
0.975824
0.975343
0.974897
0.974562
0.974413
0.974449
0.974665
0.974965
0.97526
0.975386
0.975953
0.975826
0.975531
0.975225
0.974996
0.974942
0.975071
0.975389
0.975825
0.976304
0.976753
0.97712
0.977382
0.97754
0.977612
0.977612
0.97754
0.977382
0.977121
0.976753
0.976304
0.975825
0.975389
0.975072
0.974943
0.974996
0.975225
0.975531
0.975826
0.975953
0.976489
0.976364
0.976072
0.975764
0.975528
0.97546
0.975572
0.975873
0.976298
0.976773
0.977224
0.977598
0.977867
0.978032
0.978108
0.978108
0.978032
0.977868
0.977598
0.977224
0.976773
0.976299
0.975874
0.975572
0.975461
0.975528
0.975764
0.976072
0.976364
0.976489
0.976986
0.976862
0.976575
0.976268
0.976028
0.975949
0.976045
0.976331
0.976744
0.977212
0.977662
0.97804
0.978315
0.978485
0.978563
0.978563
0.978485
0.978315
0.97804
0.977663
0.977212
0.976744
0.976331
0.976046
0.97595
0.976029
0.976268
0.976576
0.976862
0.976986
0.977439
0.977317
0.977035
0.976729
0.976485
0.976395
0.976475
0.976744
0.977144
0.977604
0.978052
0.978431
0.97871
0.978884
0.978965
0.978965
0.978884
0.978711
0.978432
0.978052
0.977604
0.977144
0.976744
0.976475
0.976395
0.976485
0.976729
0.977035
0.977317
0.977439
0.97785
0.977728
0.97745
0.977143
0.976894
0.976791
0.976855
0.977106
0.977492
0.977944
0.978388
0.978768
0.97905
0.979227
0.97931
0.97931
0.979228
0.979051
0.978768
0.978388
0.977944
0.977492
0.977107
0.976855
0.976792
0.976894
0.977143
0.97745
0.977728
0.97785
0.978225
0.978103
0.977826
0.977517
0.97726
0.977143
0.977189
0.977422
0.977794
0.978237
0.978678
0.979058
0.979343
0.979524
0.979609
0.979609
0.979524
0.979344
0.979058
0.978678
0.978237
0.977794
0.977423
0.977189
0.977143
0.97726
0.977517
0.977827
0.978103
0.978226
0.978572
0.978448
0.978173
0.977859
0.977593
0.977461
0.977489
0.977705
0.978063
0.978497
0.978934
0.979315
0.979603
0.979787
0.979874
0.979875
0.979787
0.979603
0.979315
0.978934
0.978497
0.978063
0.977705
0.977489
0.977461
0.977593
0.97786
0.978173
0.978449
0.978572
0.978897
0.978772
0.978497
0.97818
0.977904
0.977757
0.977768
0.977967
0.978311
0.978736
0.979169
0.97955
0.97984
0.980028
0.980118
0.980118
0.980028
0.97984
0.97955
0.979169
0.978737
0.978311
0.977967
0.977768
0.977758
0.977904
0.97818
0.978497
0.978772
0.978897
0.979203
0.979078
0.978804
0.978483
0.9782
0.97804
0.978035
0.978218
0.978548
0.978964
0.979391
0.97977
0.980062
0.980253
0.980345
0.980345
0.980253
0.980062
0.97977
0.979391
0.978964
0.978548
0.978218
0.978035
0.97804
0.9782
0.978484
0.978804
0.979078
0.979203
0.979491
0.979365
0.979094
0.978772
0.978483
0.978311
0.978292
0.978459
0.978775
0.97918
0.979599
0.979975
0.980267
0.98046
0.980553
0.980553
0.98046
0.980267
0.979975
0.979599
0.97918
0.978775
0.978459
0.978292
0.978312
0.978483
0.978772
0.979094
0.979365
0.979491
0.979756
0.979631
0.979363
0.979041
0.978747
0.978566
0.978534
0.978685
0.978986
0.979378
0.979789
0.980159
0.980449
0.980643
0.980737
0.980737
0.980643
0.980449
0.980159
0.979789
0.979378
0.978986
0.978685
0.978534
0.978566
0.978748
0.979041
0.979363
0.979631
0.979756
0.979994
0.979869
0.979605
0.979284
0.978987
0.978797
0.978752
0.978887
0.979173
0.979551
0.97995
0.980314
0.980601
0.980795
0.98089
0.98089
0.980795
0.980601
0.980314
0.97995
0.979551
0.979173
0.978887
0.978752
0.978797
0.978987
0.979284
0.979605
0.979869
0.979994
0.9802
0.980075
0.979816
0.979496
0.979195
0.978997
0.978939
0.979058
0.979328
0.979691
0.980078
0.980434
0.980718
0.980911
0.981006
0.981006
0.980911
0.980718
0.980434
0.980078
0.979691
0.979328
0.979058
0.978939
0.978997
0.979195
0.979496
0.979816
0.980075
0.9802
0.980373
0.980248
0.979993
0.979673
0.97937
0.979162
0.979091
0.979195
0.979447
0.979795
0.98017
0.980518
0.980799
0.98099
0.981086
0.981086
0.98099
0.980799
0.980518
0.98017
0.979795
0.979447
0.979195
0.979091
0.979162
0.97937
0.979673
0.979993
0.980248
0.980373
0.980516
0.980392
0.98014
0.979821
0.979514
0.979297
0.979213
0.979299
0.979535
0.979867
0.980231
0.980571
0.980848
0.981038
0.981134
0.981134
0.981038
0.980848
0.980571
0.98023
0.979867
0.979534
0.979299
0.979213
0.979297
0.979514
0.979821
0.98014
0.980392
0.980516
0.980637
0.980513
0.980265
0.979946
0.979635
0.979408
0.97931
0.97938
0.979598
0.979915
0.980267
0.980599
0.980873
0.981063
0.981159
0.981159
0.981063
0.980873
0.980599
0.980267
0.979915
0.979598
0.97938
0.97931
0.979408
0.979635
0.979946
0.980265
0.980513
0.980637
0.980744
0.98062
0.980375
0.980057
0.979742
0.979506
0.979394
0.979447
0.979647
0.979948
0.980288
0.980614
0.980884
0.981073
0.981169
0.981169
0.981073
0.980883
0.980614
0.980288
0.979948
0.979647
0.979447
0.979394
0.979506
0.979742
0.980057
0.980375
0.98062
0.980744
0.980842
0.980719
0.980478
0.980161
0.979842
0.979597
0.979472
0.979507
0.97969
0.979976