# vtk DataFile Version 3.0
Grid data
ASCII
DATASET STRUCTURED_POINTS
DIMENSIONS 30 300 1
ORIGIN 0 0 0
SPACING 0.00833333 0.00333333 1
POINT_DATA 9000
SCALARS rho double
LOOKUP_TABLE default
0.999714
0.999714
0.999714
0.999714
0.999714
0.999714
0.999714
0.999714
0.999714
0.999714
0.999714
0.999714
0.999714
0.999714
0.999714
0.999714
0.999714
0.999714
0.999714
0.999714
0.999714
0.999714
0.999714
0.999714
0.999714
0.999714
0.999714
0.999714
0.999714
0.999714
0.998747
0.998747
0.998747
0.998747
0.998747
0.998747
0.998747
0.998747
0.998747
0.998747
0.998747
0.998747
0.998747
0.998747
0.998747
0.998747
0.998747
0.998747
0.998747
0.998747
0.998747
0.998747
0.998747
0.998747
0.998747
0.998747
0.998747
0.998747
0.998747
0.998747
0.998786
0.998786
0.998786
0.998786
0.998786
0.998786
0.998786
0.998786
0.998786
0.998786
0.998786
0.998786
0.998786
0.998786
0.998786
0.998786
0.998786
0.998786
0.998786
0.998786
0.998786
0.998786
0.998786
0.998786
0.998786
0.998786
0.998786
0.998786
0.998786
0.998786
0.999183
0.999183
0.999183
0.999183
0.999183
0.999183
0.999183
0.999183
0.999183
0.999183
0.999183
0.999183
0.999183
0.999183
0.999183
0.999183
0.999183
0.999183
0.999183
0.999183
0.999183
0.999183
0.999183
0.999183
0.999183
0.999183
0.999183
0.999183
0.999183
0.999183
0.999644
0.999644
0.999644
0.999644
0.999644
0.999644
0.999644
0.999644
0.999644
0.999644
0.999644
0.999644
0.999644
0.999644
0.999644
0.999644
0.999644
0.999644
0.999644
0.999644
0.999644
0.999644
0.999644
0.999644
0.999644
0.999644
0.999644
0.999644
0.999644
0.999644
0.999946
0.999946
0.999946
0.999946
0.999946
0.999946
0.999946
0.999946
0.999946
0.999946
0.999946
0.999946
0.999946
0.999946
0.999946
0.999946
0.999946
0.999946
0.999946
0.999946
0.999946
0.999946
0.999946
0.999946
0.999946
0.999946
0.999946
0.999946
0.999946
0.999946
1.00006
1.00006
1.00006
1.00006
1.00006
1.00006
1.00006
1.00006
1.00006
1.00006
1.00006
1.00006
1.00006
1.00006
1.00006
1.00006
1.00006
1.00006
1.00006
1.00006
1.00006
1.00006
1.00006
1.00006
1.00006
1.00006
1.00006
1.00006
1.00006
1.00006
1.00003
1.00003
1.00003
1.00003
1.00003
1.00003
1.00003
1.00003
1.00003
1.00003
1.00003
1.00003
1.00003
1.00003
1.00003
1.00003
1.00003
1.00003
1.00003
1.00003
1.00003
1.00003
1.00003
1.00003
1.00003
1.00003
1.00003
1.00003
1.00003
1.00003
0.999963
0.999963
0.999963
0.999963
0.999963
0.999963
0.999963
0.999963
0.999963
0.999963
0.999963
0.999963
0.999963
0.999963
0.999963
0.999963
0.999963
0.999963
0.999963
0.999963
0.999963
0.999963
0.999963
0.999963
0.999963
0.999963
0.999963
0.999963
0.999963
0.999963
0.99992
0.99992
0.99992
0.99992
0.99992
0.99992
0.99992
0.99992
0.99992
0.99992
0.99992
0.99992
0.99992
0.99992
0.99992
0.99992
0.99992
0.99992
0.99992
0.99992
0.99992
0.99992
0.99992
0.99992
0.99992
0.99992
0.99992
0.99992
0.99992
0.99992
0.999913
0.999913
0.999913
0.999913
0.999913
0.999913
0.999913
0.999913
0.999913
0.999913
0.999913
0.999913
0.999913
0.999913
0.999913
0.999913
0.999913
0.999913
0.999913
0.999913
0.999913
0.999913
0.999913
0.999913
0.999913
0.999913
0.999913
0.999913
0.999913
0.999913
0.999927
0.999927
0.999927
0.999927
0.999927
0.999927
0.999927
0.999927
0.999927
0.999927
0.999927
0.999927
0.999927
0.999927
0.999927
0.999927
0.999927
0.999927
0.999927
0.999927
0.999927
0.999927
0.999927
0.999927
0.999927
0.999927
0.999927
0.999927
0.999927
0.999927
0.999941
0.999941
0.999941
0.999941
0.999941
0.999941
0.999941
0.999941
0.999941
0.999942
0.999941
0.999941
0.999941
0.999941
0.999941
0.999941
0.999941
0.999941
0.999941
0.999941
0.999942
0.999941
0.999941
0.999941
0.999941
0.999941
0.999941
0.999941
0.999941
0.999941
0.999946
0.999946
0.999946
0.999946
0.999946
0.999946
0.999946
0.999946
0.999946
0.999946
0.999946
0.999946
0.999946
0.999946
0.999946
0.999946
0.999946
0.999946
0.999946
0.999946
0.999946
0.999946
0.999946
0.999946
0.999946
0.999946
0.999946
0.999946
0.999946
0.999946
0.999943
0.999943
0.999943
0.999943
0.999943
0.999943
0.999943
0.999943
0.999943
0.999943
0.999943
0.999944
0.999944
0.999944
0.999944
0.999944
0.999944
0.999944
0.999944
0.999943
0.999943
0.999943
0.999943
0.999943
0.999943
0.999943
0.999943
0.999943
0.999943
0.999943
0.999939
0.999939
0.999939
0.999939
0.999939
0.999939
0.999939
0.999939
0.999939
0.999939
0.999939
0.999939
0.999939
0.99994
0.99994
0.99994
0.99994
0.999939
0.999939
0.999939
0.999939
0.999939
0.999939
0.999939
0.999939
0.999939
0.999939
0.999939
0.999939
0.999939
0.999938
0.999938
0.999938
0.999938
0.999937
0.999937
0.999937
0.999937
0.999937
0.999937
0.999937
0.999937
0.999937
0.999938
0.999938
0.999938
0.999938
0.999937
0.999937
0.999937
0.999937
0.999937
0.999937
0.999937
0.999937
0.999937
0.999938
0.999938
0.999938
0.999938
0.999939
0.999939
0.999939
0.999939
0.999939
0.999938
0.999938
0.999938
0.999937
0.999937
0.999937
0.999937
0.999937
0.999938
0.999938
0.999938
0.999938
0.999937
0.999937
0.999937
0.999937
0.999937
0.999938
0.999938
0.999938
0.999939
0.999939
0.999939
0.999939
0.999939
0.999941
0.999941
0.999941
0.999941
0.999941
0.999941
0.99994
0.99994
0.999939
0.999939
0.999938
0.999938
0.999938
0.999938
0.999938
0.999938
0.999938
0.999938
0.999938
0.999938
0.999939
0.999939
0.99994
0.99994
0.999941
0.999941
0.999941
0.999941
0.999941
0.999941
0.999941
0.999942
0.999942
0.999942
0.999942
0.999942
0.999942
0.999941
0.999941
0.99994
0.99994
0.999939
0.999939
0.999938
0.999938
0.999938
0.999938
0.999939
0.999939
0.99994
0.99994
0.999941
0.999941
0.999942
0.999942
0.999942
0.999942
0.999942
0.999942
0.999941
0.999938
0.999938
0.999938
0.999939
0.99994
0.999941
0.999941
0.999942
0.999942
0.999942
0.999941
0.99994
0.999939
0.999938
0.999937
0.999937
0.999938
0.999939
0.99994
0.999941
0.999942
0.999942
0.999942
0.999941
0.999941
0.99994
0.999939
0.999938
0.999938
0.999938
0.999929
0.999929
0.99993
0.999932
0.999934
0.999936
0.999938
0.999939
0.999941
0.999942
0.999942
0.999941
0.99994
0.999938
0.999938
0.999938
0.999938
0.99994
0.999941
0.999942
0.999942
0.999941
0.999939
0.999938
0.999936
0.999934
0.999932
0.99993
0.999929
0.999929
0.999913
0.999914
0.999915
0.999918
0.999921
0.999925
0.999929
0.999933
0.999936
0.999939
0.99994
0.999941
0.99994
0.99994
0.999939
0.999939
0.99994
0.99994
0.999941
0.99994
0.999939
0.999936
0.999933
0.999929
0.999925
0.999921
0.999918
0.999915
0.999914
0.999913
0.999888
0.999889
0.999892
0.999896
0.999901
0.999906
0.999913
0.999919
0.999926
0.999931
0.999935
0.999938
0.99994
0.999942
0.999942
0.999942
0.999942
0.99994
0.999938
0.999935
0.999931
0.999926
0.999919
0.999913
0.999906
0.999901
0.999896
0.999892
0.999889
0.999888
0.999854
0.999855
0.999859
0.999864
0.999871
0.999879
0.999888
0.999897
0.999907
0.999916
0.999924
0.999931
0.999938
0.999942
0.999944
0.999944
0.999942
0.999938
0.999931
0.999924
0.999916
0.999907
0.999897
0.999888
0.999879
0.999871
0.999864
0.999859
0.999855
0.999854
0.999809
0.999811
0.999815
0.999822
0.999831
0.999841
0.999853
0.999865
0.999878
0.999892
0.999905
0.999918
0.999929
0.999938
0.999943
0.999943
0.999938
0.999929
0.999918
0.999905
0.999892
0.999878
0.999865
0.999853
0.999841
0.999831
0.999822
0.999815
0.999811
0.999809
0.999754
0.999757
0.999762
0.999769
0.99978
0.999792
0.999807
0.999822
0.999839
0.999858
0.999877
0.999896
0.999913
0.999926
0.999933
0.999933
0.999926
0.999913
0.999896
0.999877
0.999858
0.999839
0.999822
0.999807
0.999792
0.99978
0.999769
0.999762
0.999757
0.999754
0.999689
0.999692
0.999698
0.999707
0.999719
0.999733
0.99975
0.999769
0.99979
0.999814
0.999839
0.999863
0.999885
0.999901
0.99991
0.99991
0.999901
0.999885
0.999863
0.999839
0.999814
0.99979
0.999769
0.99975
0.999733
0.999719
0.999707
0.999698
0.999692
0.999689
0.999616
0.99962
0.999626
0.999636
0.999649
0.999664
0.999683
0.999705
0.999731
0.999759
0.999789
0.999817
0.999841
0.999859
0.999868
0.999868
0.999859
0.999841
0.999817
0.999789
0.999759
0.999731
0.999705
0.999683
0.999664
0.999649
0.999636
0.999626
0.99962
0.999616
0.999537
0.99954
0.999547
0.999557
0.99957
0.999587
0.999608
0.999633
0.999662
0.999694
0.999726
0.999756
0.99978
0.999797
0.999805
0.999805
0.999797
0.99978
0.999756
0.999726
0.999694
0.999662
0.999633
0.999608
0.999587
0.99957
0.999557
0.999547
0.99954
0.999537
0.999452
0.999455
0.999462
0.999472
0.999485
0.999503
0.999526
0.999553
0.999584
0.999617
0.999649
0.999676
0.999697
0.999711
0.999718
0.999718
0.999711
0.999697
0.999676
0.999649
0.999617
0.999584
0.999553
0.999526
0.999503
0.999485
0.999472
0.999462
0.999455
0.999452
0.999362
0.999365
0.999371
0.999381
0.999395
0.999414
0.999438
0.999466
0.999497
0.999528
0.999555
0.999577
0.999592
0.999601
0.999605
0.999605
0.999601
0.999592
0.999577
0.999555
0.999528
0.999497
0.999466
0.999438
0.999414
0.999395
0.999381
0.999371
0.999365
0.999362
0.999267
0.999271
0.999277
0.999287
0.999301
0.999321
0.999345
0.999373
0.999401
0.999425
0.999444
0.999456
0.999462
0.999465
0.999466
0.999466
0.999465
0.999462
0.999456
0.999444
0.999425
0.999401
0.999373
0.999345
0.999321
0.999301
0.999287
0.999277
0.999271
0.999267
0.999168
0.999171
0.999177
0.999188
0.999204
0.999225
0.999249
0.999273
0.999294
0.999308
0.999314
0.999314
0.99931
0.999306
0.999304
0.999304
0.999306
0.99931
0.999314
0.999314
0.999308
0.999294
0.999273
0.999249
0.999225
0.999204
0.999188
0.999177
0.999171
0.999168
0.999065
0.999068
0.999075
0.999087
0.999104
0.999126
0.999148
0.999165
0.999175
0.999175
0.999166
0.999153
0.999138
0.999126
0.999119
0.999119
0.999126
0.999138
0.999153
0.999166
0.999175
0.999175
0.999165
0.999148
0.999126
0.999104
0.999087
0.999075
0.999068
0.999065
0.998959
0.998963
0.998971
0.998985
0.999003
0.999024
0.99904
0.999047
0.999043
0.999027
0.999002
0.998974
0.998949
0.998929
0.998918
0.998918
0.998929
0.998949
0.998974
0.999002
0.999027
0.999043
0.999047
0.99904
0.999024
0.999003
0.998985
0.998971
0.998963
0.998959
0.998853
0.998858
0.998868
0.998883
0.9989
0.998916
0.998923
0.998916
0.998895
0.998862
0.998822
0.998782
0.998746
0.99872
0.998706
0.998706
0.99872
0.998746
0.998782
0.998822
0.998862
0.998895
0.998916
0.998923
0.998916
0.9989
0.998883
0.998868
0.998858
0.998853
0.99875
0.998755
0.998765
0.99878
0.998792
0.998798
0.998791
0.998767
0.998727
0.998678
0.998626
0.998576
0.998534
0.998504
0.998489
0.998489
0.998504
0.998534
0.998576
0.998626
0.998678
0.998727
0.998767
0.998791
0.998798
0.998792
0.99878
0.998765
0.998755
0.99875
0.998646
0.998652
0.998661
0.998671
0.998675
0.998665
0.998638
0.998594
0.998536
0.998474
0.998412
0.998357
0.998313
0.998283
0.998268
0.998268
0.998283
0.998313
0.998357
0.998412
0.998474
0.998536
0.998594
0.998638
0.998665
0.998675
0.998671
0.998661
0.998652
0.998646
0.998536
0.998542
0.998548
0.99855
0.998539
0.998509
0.998458
0.998393
0.998319
0.998245
0.998179
0.998124
0.998082
0.998054
0.998041
0.998041
0.998054
0.998082
0.998124
0.998179
0.998245
0.998319
0.998393
0.998458
0.998509
0.998539
0.99855
0.998548
0.998542
0.998536
0.998409
0.998414
0.998415
0.998406
0.998376
0.998322
0.998248
0.998161
0.998073
0.997993
0.997925
0.997873
0.997835
0.997812
0.997801
0.997801
0.997812
0.997835
0.997873
0.997925
0.997993
0.998073
0.998161
0.998248
0.998322
0.998376
0.998406
0.998415
0.998414
0.998409
0.998257
0.998259
0.998253
0.99823
0.99818
0.998103
0.998007
0.997903
0.997804
0.997719
0.997651
0.997602
0.997568
0.997548
0.997539
0.997539
0.997548
0.997568
0.997602
0.997651
0.997719
0.997804
0.997903
0.998007
0.998103
0.99818
0.99823
0.998253
0.998259
0.998257
0.998077
0.998075
0.998058
0.998018
0.997948
0.997852
0.997739
0.997624
0.997519
0.99743
0.997361
0.997311
0.997277
0.997256
0.997246
0.997246
0.997256
0.997277
0.997311
0.997361
0.99743
0.997519
0.997624
0.997739
0.997852
0.997948
0.998018
0.998058
0.998075
0.998077
0.997877
0.997867
0.997834
0.997775
0.997687
0.997576
0.997454
0.997334
0.997225
0.997134
0.99706
0.997004
0.996963
0.996936
0.996923
0.996923
0.996936
0.996963
0.997004
0.99706
0.997134
0.997225
0.997334
0.997454
0.997576
0.997687
0.997775
0.997834
0.997867
0.997877
0.99767
0.997649
0.997596
0.997513
0.997406
0.997284
0.997159
0.997039
0.99693
0.996834
0.996752
0.996684
0.996631
0.996595
0.996577
0.996577
0.996595
0.996631
0.996684
0.996752
0.996834
0.99693
0.997039
0.997159
0.997284
0.997406
0.997513
0.997596
0.997649
0.99767
0.997474
0.997437
0.997357
0.997246
0.997117
0.996985
0.996857
0.99674
0.996631
0.996531
0.996439
0.996359
0.996293
0.996246
0.996222
0.996222
0.996246
0.996293
0.996359
0.996439
0.996531
0.996631
0.99674
0.996857
0.996985
0.997117
0.997246
0.997357
0.997437
0.997474
0.997294
0.997238
0.997127
0.996983
0.996828
0.99668
0.996547
0.996428
0.996319
0.996216
0.996118
0.996029
0.995956
0.995903
0.995876
0.995876
0.995903
0.995956
0.996029
0.996118
0.996216
0.996319
0.996428
0.996547
0.99668
0.996828
0.996983
0.997127
0.997238
0.997294
0.997121
0.997044
0.996901
0.996722
0.996536
0.996366
0.996219
0.996093
0.995981
0.995878
0.995781
0.995695
0.995624
0.995573
0.995546
0.995546
0.995573
0.995624
0.995695
0.995781
0.995878
0.995981
0.996093
0.996219
0.996366
0.996536
0.996722
0.996901
0.997044
0.997121
0.996925
0.996831
0.996661
0.996448
0.996231
0.996034
0.995865
0.995725
0.995607
0.995507
0.995421
0.995349
0.995292
0.995251
0.99523
0.99523
0.995251
0.995292
0.995349
0.995421
0.995507
0.995607
0.995725
0.995865
0.996034
0.996231
0.996448
0.996661
0.996831
0.996925
0.996669
0.996562
0.996376
0.996142
0.995899
0.995676
0.995483
0.995325
0.995199
0.995103
0.995032
0.994981
0.994944
0.994919
0.994906
0.994906
0.994919
0.994944
0.994981
0.995032
0.995103
0.995199
0.995325
0.995483
0.995676
0.995899
0.996142
0.996376
0.996562
0.996669
0.996319
0.996208
0.996021
0.995781
0.995527
0.995287
0.995076
0.994901
0.994766
0.994671
0.99461
0.994575
0.994555
0.994544
0.994539
0.994539
0.994544
0.994555
0.994575
0.99461
0.994671
0.994766
0.994901
0.995076
0.995287
0.995527
0.995781
0.996021
0.996208
0.996319
0.99586
0.995754
0.995583
0.995355
0.995109
0.994869
0.994651
0.994466
0.99432
0.994216
0.994149
0.994113
0.994096
0.99409
0.994088
0.994088
0.99409
0.994096
0.994113
0.994149
0.994216
0.99432
0.994466
0.994651
0.994869
0.995109
0.995355
0.995583
0.995754
0.99586
0.9953
0.995207
0.995065
0.994868
0.994648
0.994424
0.994212
0.994022
0.99386
0.993731
0.993636
0.993574
0.993538
0.993521
0.993516
0.993516
0.993521
0.993538
0.993574
0.993636
0.993731
0.99386
0.994022
0.994212
0.994424
0.994648
0.994868
0.995065
0.995207
0.9953
0.994664
0.994589
0.994486
0.994331
0.994148
0.993948
0.993746
0.99355
0.993364
0.993194
0.993048
0.992936
0.99286
0.992817
0.9928
0.9928
0.992817
0.99286
0.992936
0.993048
0.993194
0.993364
0.99355
0.993746
0.993948
0.994148
0.994331
0.994486
0.994589
0.994664
0.993979
0.993927
0.993866
0.993756
0.99361
0.993429
0.993228
0.993012
0.992789
0.992567
0.992359
0.992184
0.992055
0.991976
0.99194
0.99194
0.991976
0.992055
0.992184
0.992359
0.992567
0.992789
0.993012
0.993228
0.993429
0.99361
0.993756
0.993866
0.993927
0.993979
0.993267
0.993238
0.993216
0.993143
0.99302
0.992839
0.992615
0.992361
0.99209
0.991813
0.991548
0.991317
0.991137
0.991019
0.990961
0.990961
0.991019
0.991137
0.991317
0.991548
0.991813
0.99209
0.992361
0.992615
0.992839
0.99302
0.993143
0.993216
0.993238
0.993267
0.992533
0.992522
0.992527
0.992473
0.99235
0.992143
0.991872
0.991562
0.991239
0.990919
0.990618
0.990352
0.990137
0.989987
0.98991
0.98991
0.989987
0.990137
0.990352
0.990618
0.990919
0.991239
0.991562
0.991872
0.992143
0.99235
0.992473
0.992527
0.992522
0.992533
0.99176
0.991761
0.991773
0.991715
0.991567
0.991312
0.990981
0.990614
0.990248
0.989907
0.9896
0.989331
0.989108
0.988944
0.988857
0.988857
0.988944
0.989108
0.989331
0.9896
0.989907
0.990248
0.990614
0.990981
0.991312
0.991567
0.991715
0.991773
0.991761
0.99176
0.990919
0.990917
0.990917
0.990831
0.990643
0.990339
0.989959
0.989553
0.989171
0.98884
0.988561
0.988325
0.988125
0.987972
0.987887
0.987887
0.987972
0.988125
0.988325
0.988561
0.98884
0.989171
0.989553
0.989959
0.990339
0.990643
0.990831
0.990917
0.990917
0.990919
0.989968
0.989953
0.989922
0.989798
0.989576
0.989246
0.988854
0.988452
0.988095
0.987811
0.987594
0.987423
0.98728
0.987165
0.987099
0.987099
0.987165
0.98728
0.987423
0.987594
0.987811
0.988095
0.988452
0.988854
0.989246
0.989576
0.989798
0.989922
0.989953
0.989968
0.988866
0.988832
0.988768
0.988617
0.988391
0.988085
0.987741
0.987406
0.987129
0.986932
0.986809
0.986731
0.986671
0.986621
0.986591
0.986591
0.986621
0.986671
0.986731
0.986809
0.986932
0.987129
0.987406
0.987741
0.988085
0.988391
0.988617
0.988768
0.988832
0.988866
0.987586
0.987536
0.98746
0.987319
0.987144
0.986932
0.986715
0.986522
0.986385
0.986319
0.986314
0.986346
0.986387
0.986419
0.986435
0.986435
0.986419
0.986387
0.986346
0.986314
0.986319
0.986385
0.986522
0.986715
0.986932
0.987144
0.987319
0.98746
0.987536
0.987586
0.986123
0.986074
0.986026
0.985959
0.985914
0.985884
0.98588
0.985904
0.985963
0.986059
0.986184
0.986327
0.986467
0.986581
0.986645
0.986645
0.986581
0.986467
0.986327
0.986184
0.986059
0.985963
0.985904
0.98588
0.985884
0.985914
0.985959
0.986026
0.986074
0.986123
0.9845
0.984482
0.984524
0.984615
0.984794
0.985038
0.985329
0.985629
0.985916
0.986178
0.986421
0.986653
0.986868
0.987044
0.987145
0.987145
0.987044
0.986868
0.986653
0.986421
0.986178
0.985916
0.985629
0.985329
0.985038
0.984794
0.984615
0.984524
0.984482
0.9845
0.982781
0.982831
0.983035
0.983375
0.983874
0.984476
0.985116
0.985709
0.986209
0.986609
0.986937
0.987224
0.987481
0.987689
0.987808
0.987808
0.987689
0.987481
0.987224
0.986937
0.986609
0.986209
0.985709
0.985116
0.984476
0.983874
0.983375
0.983035
0.982831
0.982781
0.981064
0.98122
0.981657
0.98233
0.983222
0.984221
0.985208
0.986061
0.98673
0.987224
0.987599
0.987906
0.98817
0.988379
0.988496
0.988496
0.988379
0.98817
0.987906
0.987599
0.987224
0.98673
0.986061
0.985208
0.984221
0.983222
0.98233
0.981657
0.98122
0.981064
0.979479
0.979771
0.98049
0.981542
0.982843
0.984215
0.985494
0.986546
0.987329
0.987876
0.988266
0.988566
0.988809
0.988992
0.989091
0.989091
0.988992
0.988809
0.988566
0.988266
0.987876
0.987329
0.986546
0.985494
0.984215
0.982843
0.981542
0.98049
0.979771
0.979479
0.978168
0.978614
0.979614
0.981025
0.982677
0.984334
0.98582
0.987005
0.987861
0.988437
0.988824
0.989101
0.989307
0.98945
0.989524
0.989524
0.98945
0.989307
0.989101
0.988824
0.988437
0.987861
0.987005
0.98582
0.984334
0.982677
0.981025
0.979614
0.978614
0.978168
0.977254
0.977861
0.979077
0.980742
0.982615
0.984436
0.986035
0.9873
0.988213
0.988819
0.989209
0.989462
0.989629
0.989729
0.989776
0.989776
0.989729
0.989629
0.989462
0.989209
0.988819
0.988213
0.9873
0.986035
0.984436
0.982615
0.980742
0.979077
0.977861
0.977254
0.976817
0.977577
0.978876
0.980621
0.982543
0.984396
0.986029
0.987347
0.988329
0.988993
0.989405
0.989648
0.989782
0.989848
0.989873
0.989873
0.989848
0.989782
0.989648
0.989405
0.988993
0.988329
0.987347
0.986029
0.984396
0.982543
0.980621
0.978876
0.977577
0.976817
0.976914
0.977764
0.978963
0.980584
0.982378
0.984144
0.985759
0.987132
0.988211
0.988969
0.989436
0.989688
0.989804
0.989847
0.989858
0.989858
0.989847
0.989804
0.989688
0.989436
0.988969
0.988211
0.987132
0.985759
0.984144
0.982378
0.980584
0.978963
0.977764
0.976914
0.977562
0.978367
0.979269
0.980574
0.982093
0.98369
0.98526
0.986694
0.987894
0.98878
0.989335
0.989622
0.989739
0.989771
0.989774
0.989774
0.989771
0.989739
0.989622
0.989335
0.98878
0.987894
0.986694
0.98526
0.98369
0.982093
0.980574
0.979269
0.978367
0.977562
0.978658
0.979275
0.979735
0.980579
0.981724
0.983103
0.984608
0.986099
0.987428
0.988461
0.989133
0.989483
0.989621
0.989657
0.98966
0.98966
0.989657
0.989621
0.989483
0.989133
0.988461
0.987428
0.986099
0.984608
0.983103
0.981724
0.980579
0.979735
0.979275
0.978658
0.979996
0.980332
0.980318
0.980649
0.981357
0.982478
0.983889
0.985412
0.986855
0.988039
0.988851
0.989294
0.989479
0.989533
0.989543
0.989543
0.989533
0.989479
0.989294
0.988851
0.988039
0.986855
0.985412
0.983889
0.982478
0.981357
0.980649
0.980318
0.980332
0.979996
0.981369
0.981402
0.98098
0.980846
0.981098
0.981913
0.983177
0.984688
0.986213
0.987534
0.988498
0.989066
0.989326
0.989415
0.989439
0.989439
0.989415
0.989326
0.989066
0.988498
0.987534
0.986213
0.984688
0.983177
0.981913
0.981098
0.980846
0.98098
0.981402
0.981369
0.982603
0.982404
0.981689
0.981186
0.981029
0.981495
0.982536
0.983969
0.985527
0.98696
0.988079
0.988799
0.989162
0.989306
0.98935
0.98935
0.989306
0.989162
0.988799
0.988079
0.98696
0.985527
0.983969
0.982536
0.981495
0.981029
0.981186
0.981689
0.982404
0.982603
0.983587
0.983285
0.982428
0.98166
0.981176
0.981287
0.982015
0.98329
0.984821
0.986329
0.987594
0.988481
0.988976
0.989191
0.989263
0.989263
0.989191
0.988976
0.988481
0.987594
0.986329
0.984821
0.98329
0.982015
0.981287
0.981176
0.98166
0.982428
0.983285
0.983587
0.984304
0.984001
0.983164
0.98225
0.981521
0.981298
0.981657
0.982685
0.984118
0.985656
0.987042
0.988097
0.988742
0.989046
0.989153
0.989153
0.989046
0.988742
0.988097
0.987042
0.985656
0.984118
0.982685
0.981657
0.981298
0.981521
0.98225
0.983164
0.984001
0.984304
0.984798
0.984549
0.98385
0.982915
0.982023
0.981504
0.981484
0.982188
0.983446
0.984953
0.986423
0.98763
0.988432
0.988842
0.988993
0.988993
0.988842
0.988432
0.98763
0.986423
0.984953
0.983446
0.982188
0.981484
0.981504
0.982023
0.982915
0.98385
0.984549
0.984798
0.985131
0.984955
0.984444
0.983594
0.982624
0.981865
0.981496
0.981829
0.98283
0.984239
0.985742
0.98707
0.988028
0.98856
0.988768
0.988768
0.98856
0.988028
0.98707
0.985742
0.984239
0.98283
0.981829
0.981496
0.981865
0.982624
0.983594
0.984444
0.984955
0.985131
0.985363
0.985258
0.984925
0.984224
0.983261
0.982332
0.981672
0.98163
0.982299
0.983538
0.985016
0.986428
0.987531
0.988201
0.988481
0.988481
0.988201
0.987531
0.986428
0.985016
0.983538
0.982299
0.98163
0.981672
0.982332
0.983261
0.984224
0.984925
0.985258
0.985363
0.985542
0.985495
0.985294
0.984756
0.983874
0.98286
0.981979
0.981588
0.981881
0.982883
0.984277
0.985732
0.986962
0.987781
0.988151
0.988151
0.987781
0.986962
0.985732
0.984277
0.982883
0.981881
0.981588
0.981979
0.98286
0.983874
0.984756
0.985294
0.985495
0.985542
0.985697
0.98569
0.985566
0.985167
0.984417
0.9834
0.982373
0.981689
0.981606
0.982313
0.983568
0.985021
0.986352
0.987319
0.987792
0.987792
0.987319
0.986352
0.985021
0.983568
0.982313
0.981606
0.981689
0.982373
0.9834
0.984417
0.985167
0.985566
0.98569
0.985697
0.985848
0.985858
0.985762
0.985459
0.984857
0.983914
0.982818
0.981911
0.981493
0.981869
0.982928
0.984329
0.985726
0.986823
0.987403
0.987403
0.986823
0.985726
0.984329
0.982928
0.981869
0.981493
0.981911
0.982818
0.983914
0.984857
0.985459
0.985762
0.985858
0.985848
0.985997
0.985999
0.985898
0.985654
0.985189
0.984373
0.983285
0.98223
0.981542
0.981579
0.982385
0.983678
0.985091
0.986285
0.986959
0.986959
0.986285
0.985091
0.983678
0.982385
0.981579
0.981542
0.98223
0.983285
0.984373
0.985189
0.985654
0.985898
0.985999
0.985997
0.986136
0.986114
0.985992
0.985781
0.985427
0.984763
0.98375
0.982622
0.98173
0.981446
0.981944
0.983069
0.984442
0.985687
0.98643
0.98643
0.985687
0.984442
0.983069
0.981944
0.981446
0.98173
0.982622
0.98375
0.984763
0.985427
0.985781
0.985992
0.986114
0.986136
0.98625
0.986201
0.986058
0.985869
0.985599
0.985084
0.98419
0.983053
0.982014
0.981444
0.981602
0.982501
0.983776
0.985019
0.985793
0.985793
0.985019
0.983776
0.982501
0.981602
0.981444
0.982014
0.983053
0.98419
0.985084
0.985599
0.985869
0.986058
0.986201
0.98625
0.986329
0.986262
0.986112
0.985943
0.985731
0.985339
0.98458
0.983483
0.982347
0.981534
0.981354
0.981977
0.983102
0.984289
0.985053
0.985053
0.984289
0.983102
0.981977
0.981354
0.981534
0.982347
0.983483
0.98458
0.985339
0.985731
0.985943
0.986112
0.986262
0.986329
0.986368
0.9863
0.986166
0.986019
0.985842
0.985533
0.984899
0.983875
0.982689
0.981687
0.981202
0.981519
0.982446
0.983526
0.984238
0.984238
0.983526
0.982446
0.981519
0.981202
0.981687
0.982689
0.983875
0.984899
0.985533
0.985842
0.986019
0.986166
0.9863
0.986368
0.986375
0.986325
0.986225
0.986097
0.985932
0.985667
0.985133
0.984206
0.983019
0.981884
0.981148
0.981155
0.981841
0.982763
0.983384
0.983384
0.982763
0.981841
0.981155
0.981148
0.981884
0.983019
0.984206
0.985133
0.985667
0.985932
0.986097
0.986225
0.986325
0.986375
0.986367
0.986345
0.986283
0.986169
0.985998
0.985746
0.985287
0.984472
0.983331
0.982121
0.981192
0.980904
0.981305
0.982023
0.982518
0.982518
0.982023
0.981305
0.980904
0.981192
0.982121
0.983331
0.984472
0.985287
0.985746
0.985998
0.986169
0.986283
0.986345
0.986367
0.986359
0.986364
0.986331
0.986221
0.986035
0.985782
0.985382
0.984684
0.983624
0.982391
0.981321
0.980764
0.980841
0.981312
0.981649
0.981649
0.981312
0.980841
0.980764
0.981321
0.982391
0.983624
0.984684
0.985382
0.985782
0.986035
0.986221
0.986331
0.986364
0.986359
0.986359
0.986382
0.986362
0.986247
0.986045
0.985791
0.985442
0.984853
0.983896
0.982678
0.981508
0.980706
0.980438
0.980622
0.980782
0.980782
0.980622
0.980438
0.980706
0.981508
0.982678
0.983896
0.984853
0.985442
0.985791
0.986045
0.986247
0.986362
0.986382
0.986359
0.986368
0.986395
0.986371
0.986249
0.986041
0.985792
0.985483
0.984986
0.984134
0.982957
0.981715
0.980696
0.980083
0.97995
0.979926
0.979926
0.97995
0.980083
0.980696
0.981715
0.982957
0.984134
0.984986
0.985483
0.985792
0.986041
0.986249
0.986371
0.986395
0.986368
0.986379
0.986398
0.986363
0.986237
0.986033
0.985794
0.985511
0.985079
0.984321
0.983202
0.981915
0.980711
0.979771
0.979304
0.979098
0.979098
0.979304
0.979771
0.980711
0.981915
0.983202
0.984321
0.985079
0.985511
0.985794
0.986033
0.986237
0.986363
0.986398
0.986379
0.986382
0.986392
0.986346
0.986223
0.986029
0.985796
0.985522
0.985126
0.984448
0.983401
0.982094
0.980737
0.979505
0.978709
0.978325
0.978325
0.978709
0.979505
0.980737
0.982094
0.983401
0.984448
0.985126
0.985522
0.985796
0.986029
0.986223
0.986346
0.986392
0.986382
0.986377
0.986377
0.986326
0.986211
0.986027
0.985792
0.98551
0.98513
0.984519
0.983552
0.98225
0.980771
0.97929
0.978191
0.977633
0.977633
0.978191
0.97929
0.980771
0.98225
0.983552
0.984519
0.98513
0.98551
0.985792
0.986027
0.986211
0.986326
0.986377
0.986377
0.986365
0.98636
0.986307
0.986199
0.98602
0.985775
0.985476
0.9851
0.984547
0.983665
0.982385
0.980812
0.979125
0.977761
0.977038
0.977038
0.977761
0.979125
0.980812
0.982385
0.983665
0.984547
0.9851
0.985476
0.985775
0.98602
0.986199
0.986307
0.98636
0.986365
0.986352
0.986342
0.986288
0.986182
0.986001
0.985745
0.985428
0.985054
0.984549
0.983745
0.982497
0.980852
0.979
0.977413
0.976539
0.976539
0.977413
0.979
0.980852
0.982497
0.983745
0.984549
0.985054
0.985428
0.985745
0.986001
0.986182
0.986288
0.986342
0.986352
0.986341
0.986326
0.986265
0.986156
0.98597
0.985706
0.985379
0.985006
0.984535
0.983793
0.982574
0.980875
0.978896
0.977134
0.97613
0.97613
0.977134
0.978896
0.980875
0.982574
0.983793
0.984535
0.985006
0.985379
0.985706
0.98597
0.986156
0.986265
0.986326
0.986341
0.986335
0.986311
0.986238
0.986121
0.985933
0.985667
0.985335
0.984961
0.984508
0.983802
0.982603
0.980868