# vtk DataFile Version 3.0
Grid data
ASCII
DATASET STRUCTURED_POINTS
DIMENSIONS 30 300 1
ORIGIN 0 0 0
SPACING 0.00833333 0.00333333 1
POINT_DATA 9000
SCALARS rho double
LOOKUP_TABLE default
0.969858
0.969861
0.96988
0.969912
0.969941
0.969949
0.96993
0.969883
0.969813
0.969723
0.969623
0.969524
0.969439
0.969379
0.969347
0.969347
0.969379
0.96944
0.969524
0.969623
0.969722
0.969812
0.969882
0.969928
0.969948
0.96994
0.969912
0.96988
0.969862
0.969856
0.968907
0.968919
0.968959
0.969027
0.969091
0.969126
0.969123
0.969087
0.96902
0.968926
0.968813
0.968693
0.968581
0.968495
0.968448
0.968449
0.968496
0.968582
0.968693
0.968813
0.968925
0.969019
0.969085
0.969122
0.969125
0.969091
0.969029
0.968962
0.968924
0.968912
0.969006
0.96902
0.969062
0.969132
0.969199
0.969236
0.969235
0.9692
0.969138
0.969047
0.96893
0.968796
0.968662
0.968553
0.968492
0.968492
0.968553
0.968662
0.968796
0.968929
0.969046
0.969136
0.969198
0.969232
0.969234
0.969199
0.969135
0.969067
0.969027
0.969014
0.969548
0.969557
0.969581
0.969621
0.969655
0.969666
0.969646
0.969597
0.969519
0.969408
0.969266
0.969101
0.968935
0.968797
0.968718
0.968719
0.968797
0.968935
0.969101
0.969265
0.969406
0.969516
0.969593
0.969642
0.969662
0.969654
0.969623
0.969586
0.969565
0.969557
0.970239
0.970238
0.970237
0.970237
0.970229
0.970211
0.970177
0.970121
0.970035
0.96991
0.969745
0.96955
0.969351
0.969186
0.969092
0.969092
0.969186
0.969351
0.969549
0.969744
0.969908
0.970032
0.970117
0.970172
0.970207
0.970227
0.970238
0.970242
0.970246
0.970248
0.970818
0.970808
0.970783
0.97075
0.970712
0.970675
0.970633
0.970573
0.970477
0.97033
0.970133
0.9699
0.969666
0.969471
0.96936
0.96936
0.969471
0.969665
0.969899
0.970131
0.970328
0.970474
0.970569
0.970628
0.97067
0.970709
0.97075
0.970787
0.970814
0.970825
0.97119
0.971172
0.971134
0.971086
0.971038
0.970999
0.97096
0.970903
0.970802
0.970638
0.970411
0.970146
0.96988
0.969659
0.969531
0.969531
0.969659
0.96988
0.970145
0.97041
0.970636
0.970799
0.970899
0.970956
0.970995
0.971036
0.971086
0.971137
0.971177
0.971195
0.971331
0.97131
0.971268
0.971219
0.971174
0.971142
0.971111
0.971059
0.970955
0.970778
0.970529
0.970236
0.969942
0.9697
0.969561
0.969561
0.969699
0.969942
0.970235
0.970527
0.970776
0.970953
0.971056
0.971108
0.97114
0.971173
0.971218
0.97127
0.971313
0.971333
0.971303
0.971283
0.971242
0.971196
0.971159
0.971135
0.971113
0.971066
0.970961
0.970775
0.970509
0.970191
0.969874
0.969624
0.969489
0.969489
0.969624
0.969874
0.97019
0.970507
0.970773
0.970959
0.971063
0.97111
0.971133
0.971158
0.971196
0.971242
0.971284
0.971304
0.971178
0.971159
0.97112
0.971079
0.971046
0.971029
0.971012
0.970969
0.970864
0.970672
0.970388
0.970046
0.969715
0.969473
0.969355
0.969355
0.969473
0.969714
0.970044
0.970387
0.97067
0.970862
0.970967
0.97101
0.971028
0.971046
0.971078
0.971121
0.971159
0.971179
0.971024
0.971005
0.970968
0.970929
0.9709
0.970887
0.970875
0.970835
0.970732
0.970532
0.970229
0.969865
0.969529
0.969301
0.969197
0.969198
0.969302
0.969529
0.969864
0.970227
0.97053
0.97073
0.970833
0.970873
0.970886
0.970899
0.970928
0.970968
0.971006
0.971025
0.970882
0.970863
0.970826
0.970787
0.97076
0.970751
0.970743
0.970707
0.970604
0.970393
0.970069
0.969693
0.969358
0.969131
0.969024
0.969025
0.969133
0.969359
0.969693
0.970068
0.970391
0.970602
0.970705
0.970741
0.970749
0.970759
0.970786
0.970826
0.970863
0.970882
0.970767
0.970747
0.97071
0.970671
0.970646
0.970639
0.970635
0.970604
0.970498
0.970272
0.969935
0.969557
0.969219
0.968971
0.96884
0.96884
0.968973
0.969221
0.969557
0.969934
0.97027
0.970496
0.970602
0.970633
0.970637
0.970644
0.97067
0.970709
0.970747
0.970767
0.970675
0.970655
0.970617
0.970578
0.970554
0.97055
0.970552
0.970523
0.97041
0.970171
0.96983
0.969455
0.969104
0.968817
0.968649
0.96865
0.968818
0.969106
0.969457
0.96983
0.97017
0.970408
0.970521
0.970549
0.970548
0.970552
0.970577
0.970616
0.970655
0.970675
0.970592
0.970572
0.970534
0.970495
0.970472
0.970472
0.970479
0.97045
0.970328
0.970085
0.96975
0.969373
0.968992
0.96866
0.968459
0.968459
0.96866
0.968994
0.969375
0.969751
0.970084
0.970326
0.970448
0.970477
0.97047
0.97047
0.970494
0.970533
0.970571
0.970592
0.970505
0.970485
0.970447
0.970408
0.970387
0.970392
0.970402
0.970369
0.970243
0.970005
0.969677
0.969284
0.968864
0.96849
0.968266
0.968266
0.968491
0.968865
0.969286
0.969678
0.970005
0.970241
0.970367
0.9704
0.97039
0.970385
0.970407
0.970445
0.970484
0.970504
0.970407
0.970387
0.970348
0.970309
0.97029
0.970299
0.97031
0.970275
0.970152
0.969925
0.969594
0.969171
0.968709
0.968304
0.968067
0.968067
0.968304
0.96871
0.969173
0.969596
0.969926
0.970152
0.970273
0.970308
0.970297
0.970288
0.970307
0.970346
0.970385
0.970405
0.970298
0.970277
0.970237
0.970197
0.97018
0.970191
0.970203
0.970171
0.970058
0.969837
0.969489
0.969028
0.968528
0.968102
0.967859
0.967859
0.968103
0.968529
0.96903
0.969491
0.969839
0.970059
0.970169
0.9702
0.970189
0.970178
0.970195
0.970234
0.970275
0.970296
0.970181
0.970159
0.970117
0.970077
0.970061
0.970074
0.970088
0.970065
0.969963
0.969737
0.96936
0.96886
0.968331
0.967891
0.967643
0.967643
0.967892
0.968332
0.968862
0.969362
0.969739
0.969964
0.970064
0.970086
0.970071
0.970058
0.970074
0.970115
0.970157
0.970179
0.970062
0.970039
0.969995
0.969954
0.969939
0.969954
0.969975
0.969963
0.969864
0.969621
0.969209
0.968677
0.968127
0.967676
0.967424
0.967424
0.967677
0.968128
0.968679
0.969211
0.969623
0.969865
0.969963
0.969974
0.969952
0.969936
0.969951
0.969992
0.970036
0.970059
0.969943
0.969919
0.969873
0.969832
0.969818
0.969839
0.969869
0.969863
0.969757
0.969488
0.969045
0.968488
0.967921
0.96746
0.967203
0.967204
0.967462
0.967923
0.96849
0.969047
0.96949
0.969759
0.969864
0.969868
0.969837
0.969815
0.969828
0.96987
0.969915
0.969939
0.969823
0.969798
0.969752
0.969711
0.969701
0.969729
0.969766
0.96976
0.969638
0.969343
0.968874
0.968297
0.967717
0.967246
0.966982
0.966983
0.967247
0.967719
0.968299
0.968876
0.969345
0.96964
0.969761
0.969766
0.969727
0.969698
0.969708
0.969748
0.969794
0.969819
0.969701
0.969676
0.96963
0.969591
0.969586
0.969621
0.969662
0.969648
0.969507
0.969189
0.968699
0.968107
0.967513
0.967031
0.966762
0.966762
0.967033
0.967516
0.96811
0.968702
0.969191
0.969509
0.969649
0.969662
0.96962
0.969584
0.969588
0.969625
0.969671
0.969696
0.969575
0.969551
0.969506
0.969471
0.969472
0.969512
0.969552
0.969527
0.969369
0.969032
0.968526
0.967918
0.967311
0.966818
0.966542
0.966543
0.96682
0.967313
0.967921
0.968529
0.969035
0.969372
0.969529
0.969552
0.969511
0.96947
0.969467
0.969501
0.969546
0.96957
0.969447
0.969423
0.969381
0.96935
0.969357
0.969401
0.969437
0.969402
0.96923
0.968877
0.968356
0.967733
0.967112
0.966609
0.966327
0.966328
0.96661
0.967115
0.967736
0.96836
0.968881
0.969233
0.969405
0.969438
0.9694
0.969355
0.969347
0.969376
0.969418
0.969442
0.96932
0.969297
0.969257
0.969232
0.969245
0.969291
0.969324
0.96928
0.969095
0.968728
0.968192
0.967555
0.966921
0.966408
0.966121
0.966121
0.966409
0.966923
0.967558
0.968196
0.968732
0.969099
0.969283
0.969325
0.969291
0.969243
0.969229
0.969252
0.969291
0.969314
0.969196
0.969175
0.969139
0.969121
0.969139
0.969188
0.969218
0.969166
0.968969
0.968588
0.968037
0.967386
0.966741
0.966219
0.965928
0.965929
0.96622
0.966743
0.967389
0.968041
0.968592
0.968973
0.969169
0.96922
0.969188
0.969138
0.969118
0.969135
0.96917
0.969191
0.969081
0.969062
0.969032
0.969021
0.969047
0.969097
0.969124
0.969064
0.968855
0.96846
0.967895
0.967232
0.966576
0.966048
0.965754
0.965754
0.966049
0.966578
0.967235
0.967899
0.968464
0.968859
0.969068
0.969127
0.969099
0.969046
0.969019
0.969028
0.969058
0.969076
0.968979
0.968964
0.96894
0.968938
0.968971
0.969023
0.969046
0.968976
0.968754
0.968346
0.967768
0.967095
0.966431
0.965898
0.965601
0.965602
0.965899
0.966433
0.967097
0.967772
0.96835
0.968759
0.96898
0.969049
0.969025
0.968971
0.968937
0.968937
0.96896
0.968974
0.968892
0.968883
0.968868
0.968875
0.968914
0.968967
0.968983
0.968903
0.968668
0.968246
0.967658
0.966976
0.966307
0.96577
0.965472
0.965473
0.965771
0.966308
0.966978
0.967661
0.96825
0.968673
0.968907
0.968987
0.968969
0.968916
0.968875
0.968866
0.968879
0.968888
0.968824
0.968822
0.968819
0.968836
0.968879
0.968928
0.968936
0.968844
0.968596
0.968162
0.967564
0.966875
0.966203
0.965665
0.965367
0.965367
0.965666
0.966204
0.966877
0.967567
0.968166
0.968601
0.968848
0.96894
0.968932
0.968881
0.968836
0.968817
0.968819
0.96882
0.968775
0.968782
0.968793
0.96882
0.968865
0.968908
0.968905
0.968799
0.968538
0.968092
0.967486
0.966792
0.966118
0.965581
0.965284
0.965284
0.965581
0.966119
0.966794
0.967489
0.968096
0.968542
0.968804
0.968909
0.968912
0.968867
0.968821
0.968792
0.96878
0.968772
0.968752
0.968766
0.968789
0.968824
0.968869
0.968903
0.968888
0.968767
0.968492
0.968035
0.967421
0.966725
0.966051
0.965516
0.96522
0.96522
0.965516
0.966051
0.966726
0.967424
0.968039
0.968497
0.968773
0.968892
0.968907
0.968871
0.968825
0.968788
0.968764
0.968749
0.968758
0.968775
0.968804
0.968843
0.968885
0.968911
0.968883
0.968748
0.968458
0.967989
0.967369
0.96667
0.965998
0.965467
0.965174
0.965174
0.965467
0.965999
0.966671
0.967371
0.967993
0.968463
0.968753
0.968888
0.968915
0.968888
0.968844
0.968804
0.968773
0.968755
0.968794
0.968809
0.968836
0.968872
0.968909
0.968927
0.968887
0.968738
0.968433
0.967952
0.967325
0.966625
0.965957
0.96543
0.96514
0.96514
0.96543
0.965957
0.966626
0.967327
0.967955
0.968437
0.968743
0.968892
0.968931
0.968912
0.968874
0.968836
0.968808
0.968792
0.968857
0.968867
0.968885
0.968913
0.968941
0.968949
0.968896
0.968732
0.968412
0.967919
0.967286
0.966586
0.965922
0.9654
0.965114
0.965114
0.9654
0.965922
0.966587
0.967287
0.967922
0.968416
0.968737
0.968902
0.968954
0.968945
0.968915
0.968886
0.968866
0.968856
0.968934
0.968939
0.968949
0.968967
0.968984
0.968979
0.968913
0.968732
0.968395
0.96789
0.96725
0.96655
0.965889
0.965373
0.96509
0.96509
0.965373
0.965889
0.96655
0.967251
0.967892
0.968399
0.968737
0.968918
0.968985
0.968989
0.968969
0.96895
0.968938
0.968932
0.969007
0.969012
0.969022
0.969034
0.969042
0.969023
0.968938
0.968738
0.968384
0.967865
0.967218
0.966516
0.965859
0.965348
0.965068
0.965068
0.965347
0.965859
0.966517
0.967219
0.967867
0.968388
0.968743
0.968944
0.969028
0.969047
0.969037
0.969023
0.969012
0.969005
0.969063
0.969075
0.969093
0.969109
0.969111
0.969078
0.968975
0.968755
0.968382
0.967849
0.967194
0.96649
0.965835
0.965328
0.965052
0.965052
0.965328
0.965835
0.966491
0.967195
0.967852
0.968386
0.96876
0.968981
0.969084
0.969116
0.969112
0.969094
0.969075
0.969061
0.969096
0.969118
0.969151
0.969177
0.969181
0.969138
0.969019
0.96878
0.96839
0.967844
0.967182
0.966476
0.965822
0.965318
0.965045
0.965044
0.965318
0.965822
0.966476
0.967182
0.967846
0.968393
0.968785
0.969025
0.969144
0.969186
0.969181
0.969153
0.969118
0.969095
0.969109
0.96914
0.969188
0.969228
0.969236
0.969189
0.969059
0.968805
0.9684
0.967845
0.967177
0.96647
0.965819
0.965318
0.965047
0.965047
0.965318
0.965818
0.96647
0.967178
0.967846
0.968403
0.968809
0.969064
0.969195
0.969241
0.969231
0.96919
0.96914
0.969109
0.969111
0.969145
0.969204
0.969253
0.969268
0.969219
0.969081
0.968816
0.968401
0.967839
0.967169
0.966464
0.965816
0.965319
0.96505
0.96505
0.965319
0.965816
0.966464
0.96717
0.96784
0.968404
0.96882
0.969086
0.969225
0.969273
0.969257
0.969206
0.969146
0.96911
0.969107
0.969142
0.969204
0.969256
0.969272
0.969221
0.969076
0.968803
0.968381
0.967816
0.967146
0.966445
0.965801
0.965309
0.965042
0.965042
0.965308
0.965801
0.966444
0.967146
0.967817
0.968384
0.968806
0.969081
0.969226
0.969276
0.969259
0.969205
0.969142
0.969106
0.969104
0.969136
0.969195
0.969242
0.969253
0.969196
0.969044
0.968762
0.968335
0.967767
0.967099
0.966401
0.965763
0.965275
0.965011
0.965011
0.965275
0.965763
0.966401
0.967099
0.967767
0.968337
0.968766
0.969048
0.969201
0.969257
0.969245
0.969196
0.969137
0.969104
0.969106
0.969134
0.969184
0.96922
0.96922
0.969151
0.968988
0.968698
0.968264
0.967693
0.967026
0.966332
0.965699
0.965215
0.964954
0.964953
0.965215
0.965698
0.966332
0.967026
0.967693
0.968265
0.9687
0.968992
0.969156
0.969224
0.969223
0.969186
0.969134
0.969106
0.969115
0.969137
0.969178
0.9692
0.969182
0.969096
0.968918
0.968615
0.968174
0.967599
0.966933
0.966241
0.965612
0.965131
0.964872
0.964872
0.965131
0.965611
0.966241
0.966932
0.9676
0.968175
0.968617
0.968921
0.9691
0.969186
0.969202
0.969179
0.969137
0.969114
0.969131
0.969148
0.969179
0.969184
0.969146
0.969038
0.96884
0.968522
0.968071
0.967493
0.966825
0.966135
0.965508
0.965031
0.964773
0.964773
0.96503
0.965508
0.966135
0.966825
0.967493
0.968072
0.968524
0.968843
0.969042
0.96915
0.969187
0.969181
0.969148
0.96913
0.969154
0.969167
0.969189
0.969177
0.969117
0.968984
0.968761
0.968426
0.967963
0.967378
0.966709
0.96602
0.965395
0.964919
0.964662
0.964662
0.964918
0.965394
0.966019
0.966708
0.967378
0.967963
0.968427
0.968764
0.968987
0.96912
0.96918
0.96919
0.969167
0.969154
0.969186
0.969193
0.969205
0.969177
0.969095
0.968936
0.968688
0.968331
0.967853
0.967261
0.966588
0.965899
0.965275
0.9648
0.964544
0.964544
0.9648
0.965275
0.965899
0.966588
0.967261
0.967854
0.968332
0.96869
0.968938
0.969098
0.96918
0.969207
0.969193
0.969185
0.969222
0.969223
0.969225
0.969181
0.969078
0.968895
0.968622
0.968243
0.967749
0.967146
0.966469
0.965778
0.965154
0.964679
0.964423
0.964423
0.964679
0.965153
0.965778
0.966468
0.967146
0.967749
0.968244
0.968623
0.968897
0.969081
0.969184
0.969227
0.969223
0.969222
0.969261
0.969254
0.969245
0.969186
0.969064
0.968859
0.968563
0.968164
0.967654
0.96704
0.966356
0.965662
0.965036
0.96456
0.964303
0.964303
0.96456
0.965035
0.965661
0.966355
0.96704
0.967654
0.968164
0.968565
0.968861
0.969066
0.969188
0.969247
0.969255
0.969261
0.969298
0.969284
0.969262
0.969187
0.969047
0.968823
0.968509
0.968092
0.967569
0.966945
0.966253
0.965555
0.964926
0.964449
0.964191
0.964191
0.964449
0.964926
0.965555
0.966253
0.966945
0.967569
0.968093
0.96851
0.968825
0.969049
0.969189
0.969264
0.969284
0.969299
0.969332
0.969308
0.969274
0.969182
0.969024
0.968784
0.968454
0.968026
0.967492
0.96686
0.966163
0.965461
0.964829
0.964349
0.96409
0.96409
0.964349
0.964829
0.965461
0.966163
0.96686
0.967492
0.968026
0.968455
0.968785
0.969026
0.969183
0.969276
0.96931
0.969333
0.96936
0.969327
0.969279
0.969169
0.968994
0.968738
0.968397
0.96796
0.96742
0.966784
0.966084
0.965379
0.964745
0.964263
0.964002
0.964002
0.964263
0.964745
0.965379
0.966085
0.966785
0.96742
0.96796
0.968398
0.968739
0.968995
0.96917
0.96928
0.969328
0.969361
0.969382
0.969339
0.969275
0.969147
0.968955
0.968685
0.968334
0.967891
0.967349
0.966713
0.966013
0.965309
0.964674
0.964191
0.963929
0.963929
0.964191
0.964674
0.965309
0.966014
0.966713
0.967349
0.967891
0.968334
0.968686
0.968956
0.969148
0.969277
0.96934
0.969383
0.969395
0.969342
0.969263
0.969116
0.968907
0.968623
0.968263
0.967817
0.967275
0.966643
0.965947
0.965246
0.964614
0.964132
0.96387
0.96387
0.964132
0.964614
0.965246
0.965948
0.966643
0.967276
0.967817
0.968264
0.968624
0.968907
0.969117
0.969264
0.969344
0.969397
0.969401
0.969337
0.969241
0.969075
0.968848
0.968552
0.968185
0.967737
0.967199
0.966573
0.965885
0.96519
0.964563
0.964084
0.963824
0.963824
0.964084
0.964564
0.965191
0.965885
0.966573
0.967199
0.967737
0.968185
0.968552
0.968848
0.969075
0.969242
0.969339
0.969403
0.969397
0.969323
0.969209
0.969023
0.968779
0.968471
0.968098
0.96765
0.967118
0.966502
0.965824
0.96514
0.964521
0.964047
0.96379
0.96379
0.964048
0.964522
0.965141
0.965825
0.966502
0.967119
0.967651
0.968098
0.968471
0.968779
0.969023
0.96921
0.969324
0.969399
0.969382
0.969299
0.969167
0.968961
0.968698
0.968379
0.968001
0.967556
0.967033
0.96643
0.965767
0.965095
0.964487
0.96402
0.963765
0.963765
0.96402
0.964487
0.965096
0.965767
0.96643
0.967034
0.967556
0.968001
0.968378
0.968698
0.96896
0.969168
0.969301
0.969385
0.969357
0.969265
0.969116
0.968889
0.968607
0.968275
0.967893
0.967453
0.966943
0.966357
0.965712
0.965056
0.964459
0.963999
0.963748
0.963748
0.964
0.964459
0.965056
0.965712
0.966358
0.966944
0.967454
0.967893
0.968275
0.968607
0.968889
0.969117
0.969267
0.96936
0.969318
0.969219
0.969056
0.968808
0.968506
0.96816
0.967775
0.967344
0.966849
0.966283
0.965658
0.965019
0.964435
0.963984
0.963736
0.963736
0.963984
0.964436
0.96502
0.965659
0.966284
0.96685
0.967344
0.967776
0.96816
0.968506
0.968808
0.969056
0.969221
0.969321
0.969263
0.969158
0.968983
0.968716
0.968393
0.968034
0.967648
0.967227
0.966752
0.966209
0.965605
0.964984
0.964413
0.96397
0.963726
0.963727
0.96397
0.964413
0.964985
0.965606
0.96621
0.966753
0.967228
0.967648
0.968034
0.968393
0.968715
0.968983
0.96916
0.969265
0.969189
0.969079
0.968892
0.968608
0.968266
0.967896
0.967512
0.967106
0.966653
0.966133
0.96555
0.964946
0.964388
0.963954
0.963715
0.963715
0.963954
0.964389
0.964947
0.965552
0.966135
0.966654
0.967107
0.967513
0.967896
0.968266
0.968607
0.968893
0.96908
0.96919
0.969095
0.968978
0.96878
0.968479
0.968122
0.967746
0.967369
0.966981
0.966553
0.966057
0.965494
0.964905
0.964358
0.963933
0.963699
0.963699
0.963933
0.964359
0.964906
0.965496
0.966059
0.966555
0.966983
0.96737
0.967746
0.968122
0.968479
0.96878
0.968978
0.969095
0.968985
0.968856
0.968643
0.968326
0.967958
0.967583
0.967219
0.966855
0.966453
0.965981
0.965437
0.964861
0.964325
0.963907
0.963678
0.963678
0.963908
0.964326
0.964863
0.965439
0.965983
0.966455
0.966857
0.96722
0.967583
0.967958
0.968326
0.968643
0.968855
0.968984
0.968865
0.968718
0.968484
0.96815
0.967775
0.967408
0.967064
0.966726
0.966352
0.965904
0.965377
0.964815
0.964288
0.963877
0.963652
0.963653
0.963878
0.964289
0.964816
0.96538
0.965907
0.966355
0.966728
0.967065
0.967409
0.967776
0.968149
0.968483
0.968717
0.968863
0.968739
0.968571
0.968308
0.967954
0.967578
0.967225
0.966905
0.966595
0.966247
0.965822
0.965313
0.964763
0.964246
0.963842
0.963621
0.963622
0.963843
0.964247
0.964765
0.965316
0.965825
0.96625
0.966597
0.966906
0.967226
0.967578
0.967954
0.968307
0.968569
0.968736
0.968609
0.968419
0.968122
0.967748
0.967372
0.967038
0.966745
0.966461
0.966135
0.96573
0.965239
0.964702
0.964195
0.963798
0.963581
0.963581
0.963799
0.964196
0.964705
0.965242
0.965733
0.966139
0.966463
0.966746
0.967039
0.967372
0.967747
0.968121
0.968416
0.968605
0.968469
0.968262
0.967934
0.967539
0.967164
0.966851
0.966585
0.966324
0.966017
0.965626
0.965148
0.964624
0.964127
0.963737
0.963522
0.963523
0.963738
0.964129
0.964627
0.965151
0.965629
0.96602
0.966327
0.966587
0.966852
0.967165
0.967538
0.967932
0.968259
0.968465
0.968311
0.968095
0.967745
0.967337
0.966963
0.966667
0.966425
0.966185
0.965891
0.965508
0.965039
0.964524
0.964035
0.96365
0.963439
0.963439
0.963652
0.964037
0.964527
0.965043
0.965512
0.965894
0.966188
0.966427
0.966668
0.966963
0.967336
0.967742
0.968091
0.968306
0.968123
0.967913
0.967558
0.967146
0.966774
0.966488
0.966263
0.966041
0.965757
0.96538
0.964913
0.964402
0.963917
0.963536
0.963327
0.963327
0.963537
0.96392
0.964406
0.964917
0.965384
0.965761
0.966044
0.966266
0.96649
0.966774
0.967145
0.967555
0.967909
0.968118
0.967904
0.967712
0.967373
0.966973
0.966604
0.96632
0.966101
0.965889
0.965614
0.965241
0.964774
0.964262
0.963776
0.963396
0.963187
0.963187
0.963397
0.963779
0.964265
0.964778
0.965245
0.965618
0.965893
0.966104
0.966321
0.966603
0.96697
0.967369
0.967708
0.967899
0.967658
0.967495
0.96719
0.966818
0.966458
0.966169
0.965943
0.96573
0.96546
0.96509
0.964624
0.964108
0.963618
0.963235
0.963025
0.963026
0.963237
0.963621
0.964112
0.964628
0.965095
0.965464
0.965734
0.965946
0.96617
0.966457
0.966815
0.967186
0.967491
0.967654
0.967399
0.96727
0.967012
0.966682
0.96634
0.966044
0.9658
0.965571
0.965296
0.964928
0.964463
0.963945
0.963449
0.96306
0.962847
0.962848
0.963062
0.963452
0.963949
0.964468
0.964933
0.965301
0.965575
0.965802
0.966044
0.966338
0.966678
0.967008
0.967265
0.967395
0.967142
0.967045
0.96684
0.966561
0.966248
0.96595
0.965681
0.965423
0.96513
0.964757
0.964293
0.963773
0.963273
0.962877
0.962659
0.96266
0.962878
0.963276
0.963778
0.964298
0.964763
0.965135
0.965427
0.965682
0.965949
0.966245
0.966557
0.966836
0.967041
0.967139
0.966899
0.966831
0.966675
0.96645
0.966175
0.965884
0.965593
0.9653
0.964975
0.964585
0.964116
0.963596
0.963092
0.96269
0.962468
0.962469
0.962692
0.963095
0.9636
0.964121
0.964591
0.96498
0.965303
0.965594
0.965882
0.966171
0.966446
0.966671
0.966827
0.966896
0.966675
0.96663
0.966517
0.966343
0.96611
0.965837
0.965535
0.965208
0.964844
0.964423
0.963938
0.963413
0.962908
0.962505
0.962281
0.962281
0.962507
0.962912
0.963419
0.963944
0.964428
0.964848
0.965209
0.965534
0.965834
0.966106
0.966339
0.966513
0.966627
0.966672
0.966468
0.966444
0.966366
0.966237
0.966045
0.965797
0.965495
0.965144
0.964741
0.964281
0.963768
0.963231
0.962724
0.962322
0.9621
0.9621
0.962325
0.962728
0.963237
0.963774
0.964285
0.964743
0.965144
0.965493
0.965793
0.966041
0.966233
0.966363
0.966441
0.966466
0.966275
0.966269
0.966223
0.966131
0.965976
0.965754
0.965462
0.965099
0.964665
0.964163
0.963614
0.963054
0.962539
0.96214
0.961921
0.961922
0.962143
0.962544
0.963059
0.963619
0.964167
0.964666
0.965098
0.965458
0.965749
0.965972
0.966128
0.966221
0.966267
0.966274
0.96609
0.966103
0.966087
0.966028
0.965902
0.965703
0.965425
0.965061
0.964606
0.964069
0.963479
0.962887
0.962356
0.961952
0.961734
0.961735
0.961955
0.96236
0.962892
0.963483
0.96407
0.964605
0.965058
0.965421
0.965698
0.965897
0.966024
0.966085
0.966102
0.96609
0.965911
0.965942
0.965954
0.965925
0.965825
0.965645
0.965379
0.965019
0.964553
0.963988
0.963361
0.962731
0.962173
0.961755
0.961533
0.961534
0.961758
0.962177
0.962735
0.963363
0.963988
0.96455
0.965015
0.965374
0.965639
0.96582
0.965921
0.965952
0.965942
0.965912
0.965734
0.965781
0.96582
0.965819
0.965743
0.96558
0.965324
0.964966
0.964492
0.963908
0.963249
0.962583
0.961992
0.961551
0.961317
0.961317
0.961553
0.961994
0.962585
0.963249
0.963906
0.964488
0.96496
0.965318
0.965574
0.965738
0.965816
0.965818
0.965782
0.965736
0.965555
0.965614
0.965676
0.965703
0.965652
0.965505
0.965257
0.964898
0.964415
0.963813
0.963129
0.962432
0.96181
0.961344
0.961096
0.961096
0.961345
0.961811
0.962433
0.963128
0.96381
0.96441
0.964891
0.96525
0.965498
0.965646
0.9657
0.965676
0.965616
0.965557
0.965367
0.965435
0.965516
0.965567
0.965542
0.965414
0.965174
0.964811
0.964316
0.963695
0.96299
0.96227
0.961625
0.961141
0.960882
0.960882
0.961141
0.961625
0.962268
0.962986
0.96369
0.964309
0.964803
0.965166
0.965406
0.965536
0.965564
0.965515
0.965437
0.96537
0.965166
0.965239
0.965332
0.965403
0.965403
0.965297
0.965068
0.964702
0.964192
0.963551
0.962825
0.962089
0.961433
0.96094
0.960678
0.960678
0.96094
0.961431
0.962086
0.96282
0.963544
0.964183
0.964692
0.965059
0.965289
0.965397
0.965401
0.965332
0.965242
0.965169
0.964952
0.965025
0.965123
0.965208
0.96523
0.965146
0.964931
0.964564
0.964041
0.963381
0.962637
0.96189
0.961228
0.960736
0.960473
0.960473
0.960735
0.961226
0.961885
0.962631
0.963372
0.964031
0.964553
0.964921
0.965138
0.965225
0.965206
0.965124
0.965028
0.964956
0.96473
0.964799
0.964895
0.964985
0.965022
0.964958
0.964758
0.964396
0.963865
0.96319
0.962432
0.961674
0.961008
0.960515
0.960254
0.960253
0.960513
0.961005
0.961668
0.962423
0.96318
0.963853
0.964384
0.964748
0.96495
0.965018
0.964984
0.964897
0.964802
0.964734
0.964506
0.964566
0.964654
0.964741
0.964785
0.964735
0.964549
0.964194
0.963663
0.962981
0.962212
0.961444
0.96077
0.960272
0.960007
0.960006
0.960269
0.960765
0.961437
0.962202
0.962969
0.96365
0.964182
0.964539
0.964728
0.964781
0.964741
0.964656
0.96457
0.96451
0.964284
0.964333
0.964407
0.964483
0.964526
0.964483
0.964308
0.963963
0.963437
0.962754
0.96198
0.961203
0.960517
0.960008
0.959737
0.959736
0.960005
0.960511
0.961194
0.961968
0.962741
0.963423
0.963949
0.964298
0.964476
0.964523
0.964483
0.964409
0.964336
0.964289
0.964065
0.964099
0.964157
0.964217
0.964251
0.96421
0.964042
0.963706
0.963189
0.962511
0.961735
0.960952
0.960257
0.959738
0.959459
0.959458
0.959733
0.96025
0.960942
0.961723
0.962496
0.963174
0.963693
0.964032
0.964203
0.964248
0.964216
0.964158
0.964102
0.964068
0.963845
0.963865
0.963905
0.963945
0.963968
0.963923
0.96376
0.963433
0.962926
0.962255
0.961483
0.9607
0.960002
0.959479
0.959199
0.959197
0.959475
0.959994
0.960689
0.96147
0.96224
0.962911
0.96342
0.96375
0.963917
0.963965
0.963945
0.963906
0.963867
0.963848
0.963626
0.963632
0.963655
0.963677
0.963685
0.963633
0.963472
0.963153
0.962657
0.961997
0.961234
0.960458
0.959768
0.959251
0.958974
0.958972
0.959246
0.95976
0.960447
0.96122
0.961982
0.962643
0.963141
0.963463
0.963627
0.963682
0.963676
0.963657
0.963634
0.963628
0.963418
0.963411
0.963419
0.963421
0.963413
0.963352
0.96319
0.962879
0.962396
0.961751
0.961003
0.960243
0.959568
0.959065
0.958796
0.958794
0.95906
0.959561
0.960232
0.96099
0.961737
0.962383
0.962868
0.963183
0.963347
0.963412
0.963421
0.963421
0.963413
0.96342
0.963238
0.963219
0.963213
0.963194
0.963167
0.963092
0.962927
0.962622
0.962155
0.96153
0.960805
0.960067
0.959413
0.958926
0.958665
0.958664
0.958921
0.959405
0.960057
0.960793
0.961518
0.962144
0.962613
0.962921
0.963089
0.963167
0.963195
0.963215
0.963222
0.96324
0.963109
0.963077
0.963054
0.963011
0.962961
0.962867
0.962694
0.962396
0.961947
0.961349
0.960652
0.95994
0.959305
0.958831
0.958577
0.958575
0.958826
0.959297
0.95993
0.960641
0.961338
0.961938
0.962389
0.962691
0.962866
0.962962
0.963014
0.963057
0.96308
0.963112
0.963043
0.962997
0.962955
0.962883
0.962804
0.962686
0.962504
0.962212
0.961785
0.961216
0.960549
0.959861
0.959242
0.958776
0.958524
0.958523
0.95877
0.959234
0.959851
0.960539
0.961207
0.961778
0.962208
0.962503
0.962687
0.962807
0.962887
0.962958
0.963
0.963047
0.963043
0.96298
0.962916
0.962812
0.962701
0.962558
0.962365
0.962081
0.961675
0.961135
0.960496
0.959828
0.959219
0.958756
0.958505
0.958503
0.95875
0.959211
0.959818
0.960486
0.961127
0.961669
0.962078
0.962365
0.96256
0.962705
0.962816
0.96292
0.962984
0.963047
0.9631
0.963019
0.962931
0.962794
0.962651
0.962483
0.962281
0.962003
0.961617
0.961103
0.960486
0.959833
0.959231
0.958768
0.958517
0.958515
0.958763
0.959222
0.959823
0.960477
0.961096
0.961613
0.962002
0.962282
0.962486
0.962655
0.962799
0.962936
0.963023
0.963104
0.963203
0.963105
0.962995
0.962826
0.962652
0.962459
0.962247
0.961974
0.961604
0.96111
0.960511
0.959869
0.959272
0.958811
0.958559
0.958557
0.958805
0.959264
0.95986
0.960503
0.961104
0.961601
0.961974
0.96225
0.962463
0.962657
0.962831
0.963
0.963109
0.963207
0.96335
0.963235
0.963106
0.962906
0.962701
0.962482
0.962256
0.961981
0.961621
0.961142
0.960559
0.959929
0.959338
0.95888
0.958629
0.958627
0.958874
0.959331
0.959921
0.960552
0.961137
0.961619
0.961983
0.96226
0.962487
0.962706
0.96291
0.96311
0.963239
0.963354
0.963549
0.963416
0.963267
0.963035
0.962796
0.962545
0.962297
0.962012
0.961654
0.961186
0.960619
0.960002