# vtk DataFile Version 3.0
Grid data
ASCII
DATASET STRUCTURED_POINTS
DIMENSIONS 30 300 1
ORIGIN 0 0 0
SPACING 0.00833333 0.00333333 1
POINT_DATA 9000
SCALARS rho double
LOOKUP_TABLE default
0.978163
0.978179
0.97821
0.978257
0.978314
0.97838
0.978455
0.97854
0.978636
0.978732
0.978821
0.978895
0.978953
0.978991
0.979011
0.979011
0.978992
0.978953
0.978896
0.978821
0.978732
0.978635
0.97854
0.978454
0.978379
0.978314
0.978257
0.978211
0.97818
0.978164
0.977238
0.977262
0.97731
0.977377
0.977456
0.97754
0.977629
0.977726
0.977829
0.97793
0.978021
0.978099
0.97816
0.978201
0.978223
0.978223
0.978202
0.97816
0.978099
0.978021
0.97793
0.977828
0.977725
0.977628
0.977539
0.977456
0.977378
0.977312
0.977264
0.97724
0.977528
0.977556
0.977612
0.977692
0.977784
0.977874
0.977953
0.978018
0.978076
0.978131
0.978186
0.978239
0.978285
0.978319
0.978337
0.978337
0.97832
0.978286
0.97824
0.978187
0.97813
0.978074
0.978016
0.977951
0.977872
0.977783
0.977693
0.977616
0.977561
0.977533
0.978425
0.978456
0.978517
0.978604
0.978704
0.9788
0.978877
0.978928
0.978959
0.978982
0.979007
0.979036
0.979065
0.979089
0.979102
0.979102
0.979089
0.979066
0.979036
0.979007
0.97898
0.978956
0.978924
0.978873
0.978797
0.978703
0.978606
0.978522
0.978464
0.978434
0.979564
0.979594
0.979652
0.979735
0.979831
0.979923
0.979999
0.980048
0.980076
0.980092
0.980108
0.980129
0.980151
0.980171
0.980183
0.980183
0.980172
0.980152
0.980129
0.980108
0.98009
0.980072
0.980043
0.979993
0.979919
0.97983
0.979738
0.979659
0.979603
0.979575
0.980616
0.980643
0.980695
0.980767
0.980851
0.980931
0.980998
0.981043
0.981068
0.98108
0.98109
0.981102
0.981117
0.981132
0.98114
0.981141
0.981132
0.981118
0.981103
0.981089
0.981078
0.981064
0.981037
0.980992
0.980927
0.98085
0.980771
0.980703
0.980654
0.980628
0.981408
0.981431
0.981473
0.98153
0.981594
0.981658
0.981712
0.981752
0.981777
0.981789
0.981794
0.981799
0.981806
0.981812
0.981816
0.981817
0.981813
0.981806
0.9818
0.981794
0.981787
0.981773
0.981746
0.981706
0.981653
0.981594
0.981533
0.98148
0.981441
0.981419
0.981859
0.981877
0.981908
0.981949
0.981995
0.982042
0.982085
0.982121
0.982146
0.982159
0.982163
0.982162
0.98216
0.982159
0.982159
0.982159
0.98216
0.982161
0.982163
0.982163
0.982157
0.982142
0.982116
0.982081
0.982039
0.981995
0.981952
0.981914
0.981885
0.981868
0.98202
0.982035
0.982056
0.982084
0.982116
0.98215
0.982185
0.982218
0.982245
0.982262
0.982268
0.982267
0.982262
0.982257
0.982254
0.982254
0.982257
0.982262
0.982267
0.982268
0.982261
0.982243
0.982215
0.982182
0.982148
0.982116
0.982086
0.98206
0.98204
0.982026
0.981996
0.982008
0.982022
0.982041
0.982063
0.98209
0.98212
0.982152
0.98218
0.9822
0.982211
0.982213
0.98221
0.982205
0.982202
0.982202
0.982205
0.98221
0.982213
0.982211
0.9822
0.982178
0.98215
0.982118
0.982089
0.982064
0.982043
0.982025
0.982012
0.982
0.981895
0.981905
0.981915
0.981928
0.981944
0.981964
0.98199
0.98202
0.982049
0.982073
0.98209
0.982098
0.9821
0.982099
0.982097
0.982097
0.982099
0.9821
0.982098
0.982089
0.982073
0.982048
0.982019
0.981989
0.981964
0.981944
0.98193
0.981917
0.981908
0.981898
0.981792
0.981801
0.981807
0.981816
0.981826
0.98184
0.98186
0.981887
0.981916
0.981944
0.981967
0.981983
0.981991
0.981995
0.981996
0.981996
0.981995
0.981991
0.981983
0.981967
0.981944
0.981915
0.981886
0.98186
0.98184
0.981827
0.981818
0.98181
0.981803
0.981795
0.981725
0.981732
0.981736
0.981739
0.981742
0.981749
0.981762
0.981783
0.981812
0.981844
0.981874
0.981897
0.981913
0.981922
0.981925
0.981925
0.981922
0.981913
0.981897
0.981873
0.981843
0.981812
0.981783
0.981762
0.981749
0.981743
0.981741
0.981738
0.981734
0.981728
0.981695
0.981701
0.981701
0.981699
0.981694
0.981691
0.981696
0.981713
0.981741
0.981776
0.981812
0.981844
0.981866
0.981879
0.981885
0.981885
0.981879
0.981866
0.981844
0.981812
0.981776
0.98174
0.981713
0.981696
0.981692
0.981695
0.9817
0.981703
0.981703
0.981698
0.981686
0.98169
0.981686
0.981677
0.981664
0.981653
0.981652
0.981664
0.981692
0.981731
0.981773
0.98181
0.981838
0.981854
0.981862
0.981862
0.981854
0.981838
0.98181
0.981772
0.98173
0.981692
0.981664
0.981652
0.981654
0.981665
0.981679
0.981688
0.981692
0.981689
0.981677
0.981678
0.981669
0.981655
0.981635
0.981619
0.981613
0.981623
0.981652
0.981694
0.98174
0.981782
0.981813
0.981832
0.981841
0.981841
0.981832
0.981813
0.981782
0.98174
0.981693
0.981652
0.981623
0.981613
0.981619
0.981636
0.981656
0.981671
0.98168
0.981679
0.981653
0.981652
0.981639
0.98162
0.981596
0.981576
0.981569
0.981581
0.981611
0.981655
0.981704
0.981748
0.981782
0.981802
0.981812
0.981812
0.981803
0.981782
0.981748
0.981704
0.981655
0.981611
0.981581
0.98157
0.981577
0.981597
0.981621
0.981641
0.981654
0.981654
0.981609
0.981607
0.981591
0.981569
0.981543
0.981524
0.981519
0.981533
0.981565
0.98161
0.981659
0.981704
0.981738
0.98176
0.98177
0.98177
0.98176
0.981738
0.981704
0.981659
0.98161
0.981565
0.981534
0.98152
0.981525
0.981544
0.98157
0.981592
0.981608
0.981611
0.981552
0.981548
0.98153
0.981506
0.981482
0.981466
0.981465
0.981483
0.981516
0.981561
0.981608
0.981651
0.981684
0.981706
0.981716
0.981716
0.981706
0.981684
0.981651
0.981608
0.981561
0.981517
0.981483
0.981466
0.981467
0.981483
0.981508
0.981531
0.981549
0.981553
0.981489
0.981484
0.981465
0.981442
0.98142
0.981409
0.981413
0.981435
0.981469
0.981511
0.981554
0.981593
0.981623
0.981644
0.981654
0.981654
0.981644
0.981623
0.981593
0.981554
0.981511
0.981469
0.981435
0.981414
0.98141
0.981421
0.981443
0.981466
0.981485
0.98149
0.981429
0.981423
0.981404
0.981382
0.981364
0.981359
0.981369
0.981393
0.981427
0.981465
0.981502
0.981534
0.98156
0.981578
0.981587
0.981587
0.981578
0.98156
0.981534
0.981502
0.981465
0.981427
0.981393
0.98137
0.98136
0.981366
0.981384
0.981405
0.981424
0.981431
0.981379
0.981372
0.981354
0.981334
0.98132
0.98132
0.981334
0.981359
0.981391
0.981423
0.981453
0.981477
0.981497
0.98151
0.981518
0.981518
0.981511
0.981497
0.981478
0.981453
0.981424
0.981392
0.98136
0.981335
0.981321
0.981321
0.981335
0.981355
0.981373
0.98138
0.981339
0.981333
0.981316
0.9813
0.981289
0.981292
0.981308
0.981334
0.981361
0.981386
0.981406
0.981422
0.981434
0.981442
0.981447
0.981447
0.981442
0.981434
0.981422
0.981407
0.981387
0.981362
0.981334
0.981309
0.981293
0.98129
0.981301
0.981317
0.981334
0.98134
0.981312
0.981307
0.981292
0.981278
0.98127
0.981275
0.981291
0.981313
0.981335
0.981351
0.981361
0.981366
0.981369
0.981372
0.981373
0.981373
0.981372
0.98137
0.981367
0.981361
0.981352
0.981335
0.981314
0.981292
0.981276
0.981271
0.981279
0.981293
0.981307
0.981313
0.981294
0.98129
0.981278
0.981266
0.98126
0.981264
0.981277
0.981293
0.981307
0.981314
0.981313
0.981307
0.981301
0.981297
0.981295
0.981295
0.981297
0.981302
0.981308
0.981314
0.981315
0.981308
0.981294
0.981278
0.981265
0.981261
0.981267
0.981279
0.981291
0.981295
0.981284
0.981282
0.981272
0.981262
0.981255
0.981256
0.981263
0.981272
0.981276
0.981272
0.98126
0.981244
0.981228
0.981216
0.98121
0.98121
0.981216
0.981228
0.981244
0.981261
0.981273
0.981277
0.981272
0.981264
0.981257
0.981256
0.981263
0.981273
0.981282
0.981285
0.98128
0.981279
0.981271
0.981261
0.981252
0.981247
0.981246
0.981245
0.981239
0.981224
0.981201
0.981173
0.981148
0.981128
0.981118
0.981118
0.981128
0.981148
0.981174
0.981202
0.981225
0.98124
0.981246
0.981247
0.981248
0.981252
0.981262
0.981272
0.98128
0.98128
0.981281
0.981281
0.981273
0.981261
0.981247
0.981235
0.981224
0.981212
0.981194
0.981168
0.981135
0.981097
0.981062
0.981035
0.98102
0.98102
0.981035
0.981062
0.981098
0.981136
0.981169
0.981195
0.981213
0.981225
0.981235
0.981248
0.981262
0.981273
0.981281
0.981281
0.981285
0.981284
0.981275
0.98126
0.98124
0.981218
0.981196
0.981172
0.981143
0.981107
0.981063
0.981016
0.980972
0.980938
0.98092
0.98092
0.980939
0.980973
0.981017
0.981064
0.981108
0.981144
0.981173
0.981197
0.981219
0.98124
0.981261
0.981276
0.981284
0.981285
0.981291
0.98129
0.981278
0.981257
0.981229
0.981196
0.981162
0.981127
0.981087
0.98104
0.980987
0.980932
0.980881
0.980842
0.98082
0.98082
0.980842
0.980882
0.980933
0.980988
0.981041
0.981088
0.981128
0.981163
0.981197
0.981229
0.981258
0.981278
0.98129
0.981291
0.981299
0.981296
0.98128
0.981253
0.981215
0.981171
0.981125
0.981078
0.981027
0.980971
0.980911
0.980849
0.980792
0.980749
0.980726
0.980726
0.98075
0.980793
0.98085
0.980912
0.980973
0.981028
0.981079
0.981126
0.981172
0.981215
0.981253
0.98128
0.981296
0.981299
0.981308
0.981303
0.981282
0.981248
0.9812
0.981144
0.981086
0.981027
0.980967
0.980903
0.980836
0.98077
0.98071
0.980665
0.98064
0.98064
0.980665
0.980711
0.980771
0.980837
0.980904
0.980968
0.981028
0.981087
0.981145
0.9812
0.981248
0.981283
0.981303
0.981308
0.981319
0.981311
0.981285
0.981243
0.981184
0.981118
0.981048
0.980979
0.980909
0.980839
0.980767
0.980697
0.980637
0.980591
0.980567
0.980567
0.980592
0.980637
0.980698
0.980768
0.98084
0.98091
0.98098
0.981049
0.981119
0.981185
0.981243
0.981286
0.981311
0.981318
0.981331
0.98132
0.981289
0.981239
0.981171
0.981094
0.981013
0.980934
0.980856
0.980779
0.980704
0.980634
0.980575
0.980531
0.980508
0.980508
0.980531
0.980575
0.980635
0.980705
0.98078
0.980857
0.980935
0.981014
0.981094
0.981172
0.981239
0.98129
0.98132
0.98133
0.981344
0.981331
0.981295
0.981237
0.98116
0.981073
0.980983
0.980894
0.980809
0.980727
0.98065
0.980582
0.980525
0.980484
0.980463
0.980463
0.980485
0.980526
0.980583
0.980651
0.980728
0.98081
0.980895
0.980984
0.981074
0.981161
0.981237
0.981295
0.981331
0.981344
0.98136
0.981343
0.981302
0.981236
0.981152
0.981056
0.980957
0.980861
0.980769
0.980683
0.980606
0.98054
0.980488
0.980451
0.980433
0.980433
0.980452
0.980488
0.980541
0.980607
0.980684
0.98077
0.980862
0.980958
0.981057
0.981152
0.981237
0.981302
0.981344
0.98136
0.981376
0.981357
0.98131
0.981238
0.981146
0.981043
0.980937
0.980833
0.980735
0.980647
0.98057
0.980508
0.980461
0.98043
0.980415
0.980415
0.980431
0.980462
0.980508
0.980571
0.980648
0.980736
0.980834
0.980938
0.981044
0.981147
0.981239
0.98131
0.981357
0.981376
0.981392
0.98137
0.981319
0.981241
0.981143
0.981033
0.98092
0.98081
0.980707
0.980617
0.980541
0.980484
0.980443
0.980418
0.980407
0.980407
0.980419
0.980444
0.980484
0.980542
0.980618
0.980708
0.980811
0.980921
0.981034
0.981143
0.981241
0.981319
0.98137
0.981393
0.981408
0.981382
0.981327
0.981244
0.981141
0.981025
0.980906
0.98079
0.980684
0.980592
0.980518
0.980465
0.980431
0.980412
0.980404
0.980404
0.980413
0.980432
0.980466
0.980519
0.980593
0.980685
0.980791
0.980907
0.981026
0.981141
0.981245
0.981328
0.981383
0.981408
0.981421
0.981394
0.981335
0.981248
0.981139
0.981018
0.980893
0.980773
0.980663
0.98057
0.980498
0.98045
0.980422
0.980409
0.980404
0.980405
0.980409
0.980422
0.98045
0.980499
0.980571
0.980664
0.980773
0.980894
0.981019
0.98114
0.981248
0.981336
0.981394
0.981421
0.981432
0.981403
0.981342
0.981251
0.981137
0.981011
0.980881
0.980755
0.980643
0.980549
0.98048
0.980435
0.980413
0.980405
0.980403
0.980403
0.980405
0.980413
0.980435
0.98048
0.98055
0.980643
0.980756
0.980881
0.981011
0.981138
0.981251
0.981343
0.981403
0.981433
0.981441
0.98141
0.981348
0.981253
0.981135
0.981002
0.980867
0.980737
0.980622
0.980528
0.98046
0.980419
0.980401
0.980397
0.980398
0.980398
0.980397
0.980401
0.980419
0.98046
0.980528
0.980622
0.980738
0.980867
0.981003
0.981135
0.981253
0.981348
0.981411
0.981441
0.981447
0.981415
0.981352
0.981254
0.981131
0.980993
0.980851
0.980717
0.980599
0.980504
0.980437
0.980399
0.980383
0.980382
0.980385
0.980385
0.980382
0.980384
0.980399
0.980437
0.980505
0.9806
0.980718
0.980852
0.980993
0.981131
0.981254
0.981352
0.981416
0.981447
0.981451
0.981418
0.981354
0.981253
0.981126
0.980982
0.980835
0.980696
0.980574
0.980478
0.980411
0.980373
0.98036
0.98036
0.980363
0.980363
0.98036
0.98036
0.980373
0.980411
0.980478
0.980575
0.980696
0.980835
0.980982
0.981126
0.981253
0.981354
0.981418
0.981451
0.981452
0.981419
0.981355
0.981251
0.98112
0.98097
0.980817
0.980673
0.980547
0.980448
0.98038
0.980341
0.980327
0.980327
0.98033
0.98033
0.980327
0.980327
0.980341
0.98038
0.980448
0.980547
0.980673
0.980817
0.98097
0.98112
0.981251
0.981355
0.981419
0.981451
0.98145
0.981417
0.981353
0.981248
0.981113
0.980958
0.980799
0.980648
0.980517
0.980414
0.980343
0.980302
0.980286
0.980284
0.980286
0.980286
0.980284
0.980286
0.980302
0.980343
0.980415
0.980518
0.980648
0.980799
0.980958
0.981113
0.981248
0.981353
0.981417
0.98145
0.981446
0.981413
0.98135
0.981244
0.981107
0.980947
0.980781
0.980623
0.980486
0.980377
0.9803
0.980254
0.980234
0.980229
0.980229
0.980229
0.980229
0.980234
0.980254
0.9803
0.980377
0.980486
0.980623
0.980781
0.980947
0.981107
0.981244
0.98135
0.981413
0.981446
0.981442
0.981409
0.981347
0.981241
0.981101
0.980937
0.980764
0.980598
0.980452
0.980335
0.98025
0.980198
0.980172
0.980162
0.98016
0.98016
0.980162
0.980172
0.980198
0.98025
0.980335
0.980452
0.980598
0.980764
0.980937
0.981101
0.98124
0.981347
0.981408
0.981441
0.981438
0.981405
0.981345
0.981239
0.981098
0.980929
0.980749
0.980573
0.980417
0.980288
0.980194
0.980133
0.980099
0.980085
0.98008
0.98008
0.980084
0.980099
0.980133
0.980194
0.980288
0.980417
0.980573
0.980749
0.980929
0.981098
0.981238
0.981345
0.981405
0.981438
0.981439
0.981406
0.981346
0.98124
0.981097
0.980923
0.980735
0.980549
0.980379
0.980238
0.980131
0.98006
0.980018
0.979998
0.97999
0.97999
0.979998
0.980018
0.98006
0.980131
0.980238
0.980379
0.980548
0.980735
0.980922
0.981096
0.981239
0.981346
0.981405
0.981438
0.981446
0.981412
0.981353
0.981244
0.981098
0.980919
0.980722
0.980523
0.980339
0.980184
0.980064
0.979981
0.97993
0.979904
0.979893
0.979893
0.979904
0.97993
0.979981
0.980064
0.980184
0.980339
0.980523
0.980722
0.980918
0.981098
0.981244
0.981352
0.981412
0.981446
0.981463
0.981428
0.981366
0.981254
0.981103
0.980916
0.980709
0.980497
0.980298
0.980126
0.979992
0.979898
0.979839
0.979806
0.979792
0.979792
0.979806
0.979838
0.979898
0.979992
0.980126
0.980298
0.980497
0.980709
0.980916
0.981103
0.981253
0.981365
0.981427
0.981463
0.981494
0.981455
0.981389
0.981271
0.981113
0.980917
0.980698
0.98047
0.980255
0.980067
0.97992
0.979814
0.979746
0.979708
0.97969
0.97969
0.979708
0.979746
0.979814
0.97992
0.980067
0.980255
0.98047
0.980697
0.980916
0.981113
0.98127
0.981388
0.981454
0.981493
0.981539
0.981496
0.981424
0.981297
0.981129
0.980921
0.980687
0.980443
0.980211
0.980009
0.979848
0.979733
0.979657
0.979613
0.979593
0.979593
0.979613
0.979657
0.979733
0.979848
0.980009
0.980211
0.980443
0.980687
0.98092
0.981129
0.981296
0.981423
0.981495
0.981539
0.9816
0.981551
0.981472
0.981334
0.981154
0.98093
0.980679
0.980418
0.98017
0.979953
0.979782
0.979657
0.979574
0.979525
0.979502
0.979502
0.979525
0.979574
0.979657
0.979781
0.979953
0.98017
0.980418
0.980679
0.980929
0.981153
0.981334
0.981472
0.981551
0.981599
0.981676
0.981622
0.981535
0.981384
0.981187
0.980944
0.980675
0.980396
0.980132
0.979903
0.979721
0.979589
0.9795
0.979446
0.979421
0.979421
0.979446
0.9795
0.979589
0.979721
0.979903
0.980132
0.980396
0.980675
0.980944
0.981187
0.981383
0.981534
0.981621
0.981675
0.981766
0.981706
0.98161
0.981444
0.981229
0.980965
0.980675
0.980378
0.9801
0.97986
0.97967
0.979531
0.979437
0.97938
0.979353
0.979353
0.979379
0.979436
0.979531
0.97967
0.97986
0.9801
0.980378
0.980675
0.980965
0.981229
0.981444
0.98161
0.981705
0.981765
0.981868
0.981802
0.981696
0.981514
0.981278
0.980991
0.98068
0.980366
0.980075
0.979825
0.979628
0.979483
0.979385
0.979326
0.979298
0.979298
0.979326
0.979385
0.979483
0.979628
0.979825
0.980075
0.980366
0.98068
0.980991
0.981277
0.981514
0.981696
0.981801
0.981868
0.981981
0.981907
0.981791
0.98159
0.981331
0.981021
0.980689
0.980359
0.980057
0.9798
0.979596
0.979446
0.979345
0.979284
0.979257
0.979257
0.979284
0.979345
0.979446
0.979596
0.9798
0.980057
0.980359
0.980689
0.981021
0.981331
0.98159
0.981791
0.981907
0.98198
0.982101
0.98202
0.981891
0.981669
0.981387
0.981053
0.980702
0.980358
0.980046
0.979781
0.979572
0.979418
0.979315
0.979255
0.979227
0.979227
0.979255
0.979315
0.979418
0.979572
0.979781
0.980046
0.980358
0.980703
0.981053
0.981387
0.981669
0.981891
0.982019
0.982101
0.982227
0.982135
0.981993
0.98175
0.981444
0.981087
0.980718
0.980361
0.98004
0.979769
0.979555
0.979398
0.979294
0.979234
0.979208
0.979208
0.979234
0.979294
0.979398
0.979555
0.979769
0.98004
0.980361
0.980718
0.981087
0.981444
0.98175
0.981993
0.982135
0.982226
0.982354
0.982252
0.982095
0.981829
0.981499
0.981121
0.980735
0.980365
0.980036
0.979758
0.979541
0.979383
0.979279
0.97922
0.979194
0.979194
0.97922
0.979279
0.979383
0.979541
0.979759
0.980036
0.980365
0.980735
0.981121
0.981499
0.981829
0.982094
0.982251
0.982353
0.982478
0.982364
0.982192
0.981904
0.981552
0.981153
0.98075
0.980368
0.98003
0.979747
0.979527
0.979369
0.979266
0.979208
0.979182
0.979182
0.979208
0.979266
0.979369
0.979527
0.979747
0.98003
0.980368
0.98075
0.981153
0.981552
0.981904
0.982192
0.982364
0.982478
0.982597
0.98247
0.982283
0.981973
0.9816
0.98118
0.980761
0.980366
0.980019
0.979731
0.979509
0.979352
0.979251
0.979194
0.979169
0.979169
0.979194
0.979251
0.979352
0.979509
0.979731
0.980019
0.980367
0.980762
0.98118
0.9816
0.981973
0.982282
0.982469
0.982596
0.982707
0.982566
0.982365
0.982033
0.98164
0.981201
0.980766
0.980357
0.98
0.979707
0.979484
0.979328
0.979229
0.979174
0.97915
0.97915
0.979174
0.979229
0.979328
0.979484
0.979707
0.980001
0.980358
0.980766
0.981202
0.98164
0.982033
0.982364
0.982566
0.982706
0.982808
0.982652
0.982437
0.982085
0.981673
0.981214
0.980761
0.980338
0.979971
0.979673
0.979449
0.979295
0.979198
0.979145
0.979122
0.979122
0.979145
0.979198
0.979295
0.979449
0.979673
0.979972
0.980339
0.980762
0.981214
0.981673
0.982085
0.982437
0.982652
0.982807
0.982901
0.98273
0.982501
0.982129
0.981696
0.981217
0.980746
0.980308
0.979931
0.979627
0.979402
0.979249
0.979155
0.979104
0.979083
0.979083
0.979104
0.979155
0.979249
0.979402
0.979627
0.979931
0.980308
0.980747
0.981217
0.981696
0.982129
0.9825
0.982729
0.982901
0.982989
0.982801
0.982558
0.982165
0.981712
0.98121
0.98072
0.980265
0.979877
0.979568
0.979342
0.979189
0.979098
0.97905
0.97903
0.97903
0.97905
0.979098
0.97919
0.979342
0.979568
0.979878
0.980266
0.98072
0.981211
0.981712
0.982165
0.982558
0.982801
0.982989
0.983077
0.982869
0.982613
0.982198
0.981722
0.981196
0.980683
0.980211
0.979812
0.979496
0.979268
0.979115
0.979025
0.978978
0.97896
0.97896
0.978978
0.979025
0.979115
0.979268
0.979497
0.979812
0.980212
0.980684
0.981196
0.981722
0.982198
0.982613
0.982869
0.983076
0.983166
0.982938
0.982668
0.982229
0.981729
0.981175
0.980639
0.980148
0.979736
0.979413
0.97918
0.979026
0.978935
0.978889
0.978871
0.978871
0.978889
0.978935
0.979026
0.97918
0.979413
0.979737
0.980149
0.980639
0.981175
0.981729
0.982229
0.982667
0.982938
0.983166
0.98326
0.983009
0.982725
0.982261
0.981735
0.981152
0.98059
0.980078
0.979652
0.979318
0.979078
0.97892
0.978827
0.97878
0.978761
0.978761
0.97878
0.978827
0.97892
0.979078
0.979318
0.979652
0.980079
0.98059
0.981152
0.981735
0.982261
0.982724
0.983009
0.98326
0.983361
0.983085
0.982786
0.982297
0.981744
0.981129
0.980539
0.980005
0.97956
0.979213
0.978963
0.978797
0.978699
0.978648
0.978627
0.978627
0.978648
0.978699
0.978797
0.978963
0.979213
0.979561
0.980005
0.98054
0.981129
0.981744
0.982297
0.982786
0.983085
0.98336
0.98347
0.983166
0.982853
0.982338
0.981758
0.981111
0.980492
0.979931
0.979465
0.979099
0.978834
0.978657
0.97855
0.978492
0.978468
0.978468
0.978492
0.97855
0.978657
0.978835
0.9791
0.979466
0.979932
0.980492
0.981111
0.981758
0.982338
0.982853
0.983166
0.983469
0.983589
0.983255
0.982928
0.982387
0.981781
0.981101
0.980451
0.979861
0.979368
0.978978
0.978693
0.978499
0.978378
0.97831
0.97828
0.97828
0.97831
0.978378
0.978499
0.978693
0.978979
0.979369
0.979861
0.980451
0.981101
0.981781
0.982387
0.982928
0.983255
0.983589
0.983722
0.983355
0.983015
0.982448
0.981817
0.981103
0.980419
0.979796
0.979272
0.978852
0.978539
0.978321
0.978182
0.978101
0.978065
0.978065
0.978102
0.978182
0.978322
0.978539
0.978852
0.979272
0.979796
0.980419
0.981103
0.981817
0.982448
0.983015
0.983354
0.983722
0.983874
0.983469
0.983117
0.982526
0.98187
0.98112
0.980399
0.979738
0.979177
0.97872
0.978372
0.978125
0.977962
0.977864
0.977819
0.977819
0.977865
0.977962
0.978125
0.978372
0.97872
0.979177
0.979739
0.9804
0.98112
0.98187
0.982526
0.983117
0.983469
0.983874
0.98405
0.983604
0.98324
0.982624
0.981943
0.981156
0.980394
0.979689
0.979084
0.978583
0.978193
0.977908
0.977715
0.977598
0.977544
0.977544
0.977598
0.977715
0.977908
0.978193
0.978583
0.979084
0.97969
0.980394
0.981156
0.981943
0.982624
0.98324
0.983604
0.984049
0.984254
0.983763
0.983388
0.982747
0.982039
0.981211
0.980404
0.97965
0.978994
0.97844
0.978001
0.97767
0.977442
0.977302
0.977236
0.977236
0.977302
0.977442
0.97767
0.978001
0.978441
0.978994
0.97965
0.980405
0.981212
0.982039
0.982747
0.983388
0.983763
0.984254
0.984493
0.983951
0.983565
0.982898
0.982162
0.98129
0.980431
0.979621
0.978905
0.978292
0.977795
0.977412
0.977141
0.976973
0.976895
0.976895
0.976973
0.977141
0.977412
0.977795
0.978293
0.978905
0.979621
0.980432
0.98129
0.982162
0.982898
0.983565
0.983951
0.984492
0.984767
0.98417
0.983772
0.98308
0.982312
0.981391
0.980475
0.9796
0.978817
0.978137
0.977574
0.977132
0.976813
0.976611
0.976516
0.976516
0.976611
0.976813
0.977132
0.977574
0.978137
0.978818
0.9796
0.980475
0.981391
0.982313
0.98308
0.983772
0.98417
0.984767
0.985079
0.984422
0.984013
0.983296
0.982492
0.981516
0.980535
0.979586
0.978728
0.977972
0.977337
0.97683
0.976456
0.976214
0.976097
0.976097
0.976214
0.976456
0.97683
0.977337
0.977972
0.978728
0.979587
0.980535
0.981516
0.982492
0.983296
0.984013
0.984422
0.985079
0.985431
0.98471
0.984289
0.983548
0.982701
0.981663
0.980608
0.979578
0.978634
0.977794
0.977081
0.976503
0.976069
0.97578
0.975637
0.975636
0.97578
0.976069
0.976503
0.977081
0.977794
0.978634
0.979578
0.980608
0.981663
0.982702
0.983548
0.984289
0.98471
0.985431
0.985826
0.985037
0.984605
0.983838
0.982941
0.981832
0.980693
0.979571
0.978534
0.977603
0.976805
0.97615
0.97565
0.975308
0.975135
0.975135
0.975308
0.975649
0.97615
0.976805
0.977603
0.978534
0.979571
0.980693
0.981832
0.982941
0.983838
0.984605
0.985037
0.985826
0.986269
0.985409
0.984965
0.984169
0.98321
0.982019
0.980787
0.979564
0.978426
0.977396
0.976505
0.975767
0.975194
0.974797
0.974592
0.974591
0.974797
0.975194
0.975767
0.976504
0.977396
0.978425
0.979564
0.980787
0.98202
0.98321
0.98417
0.984965
0.985408
0.986269
0.986767
0.985832
0.985375
0.984544
0.98351
0.982227
0.98089
0.979558
0.978309
0.977171
0.976179
0.975349
0.974698
0.974244
0.974007
0.974007
0.974243
0.974698
0.975348
0.976178
0.977171
0.978308
0.979558
0.98089
0.982227
0.98351
0.984544
0.985375
0.985832
0.986767
0.987326
0.986315
0.985841
0.984965
0.983844
0.982456
0.981004
0.979552
0.978183
0.976928
0.975824
0.974893
0.974159
0.973645
0.973379
0.973379
0.973645
0.974158
0.974893
0.975824
0.976928
0.978182
0.979552
0.981004
0.982456
0.983844
0.984965
0.985841
0.986315
0.987326
0.98796
0.98687
0.986373
0.985441
0.984218
0.982712
0.981132
0.979549
0.978048
0.976666
0.97544
0.974398
0.973573
0.973
0.972705
0.972705
0.972999
0.973573
0.974398
0.97544
0.976666
0.978047
0.979549
0.981132
0.982712
0.984218
0.985441
0.986373
0.98687
0.98796
0.988681
0.98751
0.986984
0.985984
0.984642
0.983001
0.981279
0.97955
0.977904
0.976382
0.975025
0.973864
0.972942
0.972304
0.97198
0.97198
0.972304
0.972942
0.973863
0.975024
0.976382
0.977903
0.97955
0.981279
0.983001
0.984642
0.985983
0.986984
0.98751
0.98868
0.989495
0.988243
0.987685
0.986606
0.985129
0.983334
0.981449
0.979558
0.977751
0.976076
0.974577
0.973289
0.972266
0.971559
0.971201
0.971201
0.971559
0.972266
0.973289
0.974577
0.976076
0.977751
0.979557
0.981449
0.983334
0.985129
0.986606
0.987685
0.988242
0.989495
0.990407
0.98907
0.988481
0.987318
0.985692
0.983721
0.981651
0.979575
0.97759
0.975748
0.974095
0.972675
0.971546
0.970764
0.970368
0.970368
0.970764
0.971546
0.972675
0.974095
0.975748
0.97759
0.979575
0.981651
0.983721
0.985692
0.987318
0.98848
0.98907
0.990406
0.991434
0.99001
0.989386
0.988131
0.986338
0.98417
0.981892
0.979609
0.977425
0.975398
0.97358
0.97202
0.97078
0.96992
0.969481
0.969481
0.96992
0.970781
0.972021
0.97358
0.975398
0.977425
0.979609
0.981892
0.98417
0.986338
0.988131
0.989386
0.99001
0.991434
0.992632
0.991113
0.990447
0.989081
0.987089
0.984691
0.982176
0.979662
0.977256
0.975025
0.973029
0.971322
0.969968
0.969025
0.968542
0.968542
0.969025
0.969968
0.971323
0.973029
0.975026
0.977256
0.979662
0.982176
0.984691
0.987089
0.989081
0.990447
0.991113
0.992631
0.994053
0.992432
0.991724
0.990229
0.987987
0.985303
0.982511
0.979737
0.977087
0.974631
0.972441
0.970579
0.969106
0.968079
0.96755
0.96755
0.968079
0.969106
0.970579
0.972441
0.974632
0.977087
0.979738
0.982511
0.985303
0.987987
0.990229
0.991723
0.992432
0.994053
0.99567
0.993948
0.993218
0.991602
0.989082
0.986047
0.982911
0.979834
0.976912
0.974214
0.971814
0.969786
0.968189
0.967078
0.966505
0.966505
0.967078
0.968189
0.969786
0.971815
0.974215
0.976913
0.979834
0.982912
0.986047
0.989082
0.991602
0.993217
0.993948
0.99567
0.997428
0.995605
0.994873
0.993161
0.990377
0.986959
0.983409
0.979961
0.97673
0.97377
0.971147
0.96894
0.967214
0.966017
0.9654
0.9654
0.966017
0.967214
0.968941
0.971147
0.973771
0.976731
0.979961
0.983409
0.986959
0.990377
0.993161
0.994873
0.995604
0.997428
0.999509
0.997557
0.996776
0.994929
0.991855
0.988038
0.984028
0.980138
0.976542
0.973293
0.970433
0.968038
0.966173
0.964889
0.96423
0.96423
0.964889
0.966173
0.968038
0.970434
0.973293
0.976542
0.980138
0.984029
0.988038
0.991855
0.994929
0.996776
0.997556
0.999509
1.0027
1.00052
0.999508
0.997302
0.993658
0.989283
0.984763
0.980382
0.976356
0.972778
0.969665
0.967071
0.965061
0.963686
0.962985
0.962985
0.963686
0.965061
0.967071
0.969665
0.972778
0.976357
0.980382
0.984764
0.989283
0.993659
0.997302
0.999507
1.00052
1.0027
1.00891
1.0063
1.00453
1.0013
0.996341
0.990865
0.9856
0.980673
0.976182
0.972225
0.968832
0.966031
0.96387
0.9624
0.961657
0.961657
0.962401
0.96387
0.966031
0.968833
0.972226
0.976183
0.980674
0.985601
0.990866
0.996341
1.0013
1.00453
1.0063
1.00891
1.02292
1.01954
1.01575
1.00952
1.00133
0.993341
0.986643
0.980978
0.97601
0.971646
0.967932
0.964905
0.962589
0.961022
0.960234
0.960235
0.961022
0.962589
0.964906
0.967933
0.971647
0.976011
0.980978
0.986644
0.993341
1.00133
1.00952
1.01575
1.01954
1.02292
1.05658
1.05177
1.04298
1.02865
1.01221
0.998152
0.988323
0.98136
0.975811
0.971042
0.96697
0.963684
0.961205
0.959541
0.958707
0.958707
0.959541
0.961205
0.963685
0.96697
0.971042
0.975811
0.98136
0.988323
0.998152
1.01221
1.02865
1.04298
1.05177
1.05658
1.1398
1.13214
1.11109
1.07558
1.03804
1.0088
0.991725
0.982123
0.975585
0.970378
0.965948
0.962367
0.959706
0.957943
0.957064
0.957064
0.957944
0.959706
0.962368
0.965948
0.970379
0.975586
0.982124
0.991726