# vtk DataFile Version 3.0
Grid data
ASCII
DATASET STRUCTURED_POINTS
DIMENSIONS 30 300 1
ORIGIN 0 0 0
SPACING 0.00833333 0.00333333 1
POINT_DATA 9000
SCALARS rho double
LOOKUP_TABLE default
0.968631
0.968635
0.968649
0.968673
0.968706
0.968744
0.968782
0.968815
0.968846
0.968876
0.968908
0.968942
0.968975
0.969002
0.969017
0.969017
0.969002
0.968975
0.968942
0.968907
0.968875
0.968845
0.968814
0.968781
0.968744
0.968706
0.968673
0.968651
0.968637
0.968635
0.967766
0.967776
0.967807
0.967856
0.967921
0.967987
0.968048
0.968098
0.96814
0.968181
0.968225
0.96827
0.968311
0.968343
0.96836
0.96836
0.968343
0.968311
0.96827
0.968224
0.96818
0.968139
0.968096
0.968047
0.967986
0.96792
0.967857
0.967809
0.967778
0.967769
0.968044
0.968059
0.968103
0.968171
0.968256
0.968342
0.968418
0.968479
0.968531
0.968583
0.968641
0.968699
0.96875
0.968787
0.968805
0.968805
0.968787
0.96875
0.968699
0.96864
0.968582
0.968529
0.968476
0.968415
0.96834
0.968256
0.968173
0.968107
0.968064
0.968051
0.96887
0.968887
0.968936
0.969008
0.969096
0.969183
0.96926
0.969323
0.969381
0.969443
0.969513
0.969583
0.969644
0.969686
0.969707
0.969707
0.969686
0.969644
0.969583
0.969512
0.969441
0.969378
0.969319
0.969255
0.96918
0.969095
0.96901
0.968942
0.968895
0.968879
0.969912
0.969929
0.969976
0.970042
0.970119
0.970195
0.970262
0.970322
0.970382
0.970451
0.970528
0.970605
0.97067
0.970715
0.970738
0.970738
0.970716
0.970671
0.970605
0.970527
0.970449
0.970379
0.970317
0.970256
0.97019
0.970118
0.970045
0.969983
0.969939
0.969923
0.970867
0.970883
0.970924
0.970977
0.971038
0.971097
0.971155
0.971213
0.971278
0.971354
0.971436
0.971515
0.971579
0.971623
0.971644
0.971644
0.971623
0.971579
0.971514
0.971435
0.971352
0.971275
0.971208
0.971149
0.971093
0.971037
0.97098
0.970931
0.970893
0.970878
0.971602
0.971616
0.97165
0.971691
0.971739
0.971788
0.971842
0.971904
0.971977
0.97206
0.972145
0.972223
0.972285
0.972326
0.972346
0.972346
0.972326
0.972285
0.972223
0.972144
0.972058
0.971974
0.9719
0.971837
0.971784
0.971738
0.971694
0.971656
0.971624
0.971611
0.972062
0.972075
0.972105
0.97214
0.972183
0.972232
0.972292
0.972364
0.972448
0.972537
0.972626
0.972704
0.972765
0.972806
0.972826
0.972826
0.972806
0.972765
0.972703
0.972625
0.972536
0.972445
0.972361
0.972289
0.97223
0.972183
0.972142
0.97211
0.972081
0.972069
0.972303
0.972317
0.972349
0.972387
0.972437
0.972495
0.972568
0.972652
0.972746
0.972843
0.972936
0.973018
0.973083
0.973128
0.97315
0.97315
0.973127
0.973083
0.973017
0.972935
0.972842
0.972745
0.972651
0.972566
0.972494
0.972437
0.972389
0.972352
0.972321
0.972308
0.972414
0.972431
0.97247
0.972518
0.972581
0.972655
0.972743
0.972841
0.972946
0.97305
0.97315
0.973238
0.97331
0.973361
0.973387
0.973387
0.973361
0.973309
0.973237
0.973149
0.97305
0.972945
0.97284
0.972742
0.972655
0.972582
0.97252
0.972473
0.972434
0.972418
0.97248
0.972501
0.97255
0.972612
0.972691
0.972782
0.972885
0.972997
0.973113
0.973226
0.973332
0.973427
0.973505
0.973563
0.973593
0.973593
0.973563
0.973505
0.973426
0.973331
0.973225
0.973112
0.972997
0.972886
0.972782
0.972692
0.972614
0.972552
0.972504
0.972483
0.972553
0.972579
0.972638
0.972714
0.972808
0.972916
0.973035
0.97316
0.973285
0.973406
0.973517
0.973617
0.9737
0.973761
0.973794
0.973794
0.973761
0.9737
0.973617
0.973517
0.973405
0.973285
0.97316
0.973035
0.972917
0.97281
0.972716
0.97264
0.972582
0.972556
0.972656
0.972687
0.972754
0.972842
0.972951
0.973073
0.973206
0.973342
0.973477
0.973604
0.973719
0.973821
0.973906
0.973968
0.974001
0.974002
0.973968
0.973906
0.973821
0.973719
0.973604
0.973477
0.973343
0.973206
0.973074
0.972952
0.972844
0.972756
0.972689
0.972659
0.972788
0.972822
0.972895
0.972993
0.973114
0.973249
0.973394
0.973541
0.973684
0.973815
0.973933
0.974035
0.974119
0.974181
0.974214
0.974214
0.974181
0.97412
0.974035
0.973933
0.973815
0.973684
0.973542
0.973395
0.97325
0.973116
0.972995
0.972898
0.972825
0.97279
0.972935
0.972972
0.97305
0.973155
0.973285
0.973431
0.973586
0.973742
0.973891
0.974026
0.974145
0.974247
0.97433
0.97439
0.974422
0.974422
0.97439
0.97433
0.974247
0.974145
0.974026
0.973891
0.973743
0.973587
0.973432
0.973287
0.973158
0.973053
0.972975
0.972938
0.973084
0.973123
0.973204
0.973314
0.973451
0.973604
0.973767
0.973929
0.974083
0.97422
0.97434
0.974442
0.974523
0.974582
0.974613
0.974613
0.974582
0.974523
0.974442
0.97434
0.974221
0.974083
0.97393
0.973768
0.973605
0.973453
0.973316
0.973206
0.973125
0.973086
0.973224
0.973264
0.973346
0.973459
0.9736
0.973758
0.973926
0.974092
0.974248
0.974387
0.974507
0.974608
0.974688
0.974746
0.974776
0.974776
0.974746
0.974688
0.974608
0.974507
0.974387
0.974249
0.974093
0.973927
0.97376
0.973602
0.973461
0.973349
0.973266
0.973226
0.973351
0.973391
0.973474
0.973587
0.97373
0.97389
0.97406
0.974227
0.974383
0.974522
0.974641
0.974741
0.974821
0.974877
0.974907
0.974907
0.974877
0.974821
0.974741
0.974641
0.974522
0.974384
0.974228
0.974061
0.973892
0.973732
0.973589
0.973476
0.973393
0.973353
0.973465
0.973505
0.973586
0.973699
0.973842
0.974002
0.974171
0.974337
0.97449
0.974627
0.974745
0.974844
0.974923
0.97498
0.975009
0.975009
0.97498
0.974923
0.974843
0.974745
0.974627
0.974491
0.974337
0.974172
0.974003
0.973843
0.973701
0.973588
0.973506
0.973467
0.973567
0.973606
0.973687
0.973799
0.97394
0.974098
0.974265
0.974426
0.974576
0.974708
0.974823
0.974921
0.975001
0.975058
0.975089
0.975089
0.975058
0.975001
0.974921
0.974823
0.974708
0.974576
0.974427
0.974266
0.9741
0.973942
0.973801
0.973688
0.973607
0.973568
0.973657
0.973696
0.973777
0.973889
0.97403
0.974186
0.974348
0.974503
0.974646
0.974773
0.974884
0.97498
0.975061
0.975119
0.975151
0.975151
0.975119
0.97506
0.97498
0.974884
0.974773
0.974647
0.974504
0.974349
0.974187
0.974031
0.973891
0.973778
0.973698
0.973659
0.973736
0.973776
0.973858
0.973971
0.974112
0.974266
0.974423
0.974572
0.974707
0.974826
0.974932
0.975027
0.975107
0.975167
0.9752
0.9752
0.975167
0.975107
0.975026
0.974932
0.974826
0.974707
0.974572
0.974424
0.974267
0.974114
0.973973
0.973859
0.973777
0.973737
0.973802
0.973843
0.973929
0.974046
0.974188
0.97434
0.974492
0.974633
0.974759
0.97487
0.974971
0.975062
0.975143
0.975204
0.975238
0.975238
0.975204
0.975142
0.975062
0.974971
0.97487
0.974759
0.974633
0.974492
0.974341
0.974189
0.974047
0.97393
0.973844
0.973803
0.973855
0.973898
0.973989
0.97411
0.974255
0.974405
0.974552
0.974685
0.974802
0.974905
0.974999
0.975087
0.975167
0.975229
0.975264
0.975264
0.975229
0.975166
0.975087
0.974999
0.974905
0.974802
0.974685
0.974552
0.974406
0.974256
0.974111
0.97399
0.973899
0.973855
0.973894
0.97394
0.974037
0.974163
0.97431
0.974459
0.9746
0.974725
0.974833
0.974928
0.975016
0.9751
0.975178
0.975241
0.975276
0.975276
0.97524
0.975178
0.9751
0.975016
0.974928
0.974833
0.974725
0.9746
0.974459
0.974311
0.974164
0.974037
0.973941
0.973894
0.97392
0.97397
0.974071
0.974202
0.974351
0.974498
0.974634
0.974751
0.974851
0.974938
0.975019
0.975099
0.975175
0.975237
0.975274
0.975273
0.975237
0.975175
0.975099
0.975019
0.974938
0.974851
0.974751
0.974634
0.974498
0.974351
0.974203
0.974072
0.97397
0.97392
0.973935
0.973987
0.974092
0.974226
0.974375
0.974519
0.97465
0.97476
0.974853
0.974932
0.975007
0.975083
0.975156
0.975218
0.975254
0.975254
0.975218
0.975156
0.975082
0.975007
0.974932
0.974853
0.974761
0.97465
0.974519
0.974375
0.974226
0.974092
0.973987
0.973935
0.973939
0.973992
0.974099
0.974233
0.974381
0.974522
0.974648
0.974753
0.974838
0.974911
0.97498
0.975052
0.975122
0.975182
0.975217
0.975217
0.975182
0.975122
0.975052
0.97498
0.974911
0.974838
0.974753
0.974648
0.974522
0.974381
0.974233
0.974099
0.973991
0.973939
0.973933
0.973985
0.974091
0.974224
0.97437
0.974508
0.974629
0.974728
0.974808
0.974875
0.97494
0.975007
0.975073
0.97513
0.975162
0.975162
0.975129
0.975073
0.975007
0.97494
0.974875
0.974808
0.974728
0.974629
0.974507
0.97437
0.974224
0.974091
0.973984
0.973933
0.973917
0.973967
0.974071
0.9742
0.974343
0.974477
0.974595
0.97469
0.974765
0.974828
0.974888
0.97495
0.97501
0.975061
0.975091
0.975091
0.975061
0.97501
0.97495
0.974888
0.974828
0.974765
0.97469
0.974594
0.974477
0.974342
0.9742
0.97407
0.973966
0.973916
0.97389
0.973937
0.974038
0.974163
0.974303
0.974435
0.974551
0.974643
0.974715
0.974774
0.974828
0.974883
0.974937
0.974981
0.975006
0.975006
0.974981
0.974937
0.974883
0.974829
0.974774
0.974715
0.974643
0.97455
0.974435
0.974303
0.974163
0.974037
0.973937
0.973889
0.973853
0.973898
0.973995
0.974117
0.974255
0.974387
0.974503
0.974594
0.974663
0.974717
0.974765
0.974811
0.974856
0.974893
0.974914
0.974915
0.974893
0.974857
0.974812
0.974765
0.974717
0.974663
0.974594
0.974502
0.974387
0.974255
0.974116
0.973994
0.973897
0.973853
0.973808
0.97385
0.973944
0.974064
0.974203
0.974338
0.974456
0.974548
0.974614
0.974662
0.974701
0.974738
0.974775
0.974805
0.974823
0.974823
0.974806
0.974775
0.974738
0.974701
0.974662
0.974614
0.974548
0.974456
0.974337
0.974203
0.974064
0.973943
0.973849
0.973807
0.973755
0.973795
0.973889
0.97401
0.974152
0.974292
0.974415
0.974508
0.974571
0.97461
0.974639
0.974667
0.974696
0.974723
0.974739
0.974739
0.974723
0.974697
0.974667
0.97464
0.974611
0.974571
0.974508
0.974414
0.974292
0.974152
0.974009
0.973888
0.973794
0.973754
0.973695
0.973735
0.973831
0.973957
0.974106
0.974253
0.974381
0.974475
0.974533
0.974563
0.974582
0.9746
0.974625
0.974649
0.974665
0.974665
0.97465
0.974625
0.974601
0.974582
0.974564
0.974533
0.974475
0.974381
0.974253
0.974106
0.973956
0.97383
0.973734
0.973694
0.97363
0.973671
0.973773
0.973906
0.974066
0.974222
0.974356
0.97445
0.974501
0.974521
0.974529
0.97454
0.974561
0.974586
0.974602
0.974603
0.974586
0.974562
0.974541
0.97453
0.974522
0.974502
0.97445
0.974356
0.974222
0.974066
0.973906
0.973772
0.97367
0.973629
0.973562
0.973606
0.973715
0.97386
0.974032
0.974199
0.974339
0.974431
0.974476
0.974485
0.974483
0.974488
0.974507
0.974532
0.97455
0.97455
0.974533
0.974508
0.974489
0.974484
0.974486
0.974476
0.974432
0.974339
0.974199
0.974031
0.973859
0.973714
0.973605
0.973561
0.973494
0.97354
0.973659
0.973815
0.974001
0.97418
0.974325
0.974417
0.974456
0.974456
0.974446
0.974445
0.974461
0.974486
0.974504
0.974505
0.974487
0.974462
0.974446
0.974447
0.974457
0.974457
0.974418
0.974325
0.974179
0.974001
0.973815
0.973658
0.973539
0.973493
0.973427
0.973476
0.973604
0.973772
0.973971
0.97416
0.974312
0.974405
0.974441
0.974436
0.974418
0.974411
0.974424
0.974447
0.974464
0.974465
0.974448
0.974425
0.974413
0.974419
0.974437
0.974442
0.974406
0.974312
0.97416
0.973971
0.973771
0.973603
0.973475
0.973426
0.973363
0.973416
0.973551
0.973729
0.973939
0.974137
0.974295
0.974393
0.974429
0.974422
0.974399
0.974387
0.974394
0.974412
0.974427
0.974427
0.974413
0.974395
0.974388
0.974401
0.974423
0.97443
0.974393
0.974295
0.974136
0.973938
0.973728
0.97355
0.973415
0.973363
0.973307
0.973361
0.973502
0.973686
0.973903
0.974108
0.974273
0.974377
0.974418
0.974413
0.974387
0.974368
0.974366
0.974378
0.974389
0.974389
0.974378
0.974367
0.974369
0.974389
0.974414
0.974419
0.974378
0.974274
0.974107
0.973902
0.973685
0.973501
0.97336
0.973306
0.973258
0.973313
0.973456
0.973643
0.973864
0.974074
0.974248
0.97436
0.974409
0.974407
0.97438
0.974352
0.97434
0.974341
0.974346
0.974347
0.974342
0.974341
0.974354
0.974381
0.974408
0.97441
0.974361
0.974248
0.974074
0.973863
0.973642
0.973456
0.973312
0.973258
0.973218
0.973272
0.973415
0.973602
0.973825
0.974041
0.974222
0.974345
0.974403
0.974406
0.974376
0.974339
0.974313
0.974302
0.974299
0.974299
0.974302
0.974314
0.97434
0.974377
0.974407
0.974404
0.974345
0.974222
0.97404
0.973825
0.973602
0.973415
0.973272
0.973218
0.973185
0.973237
0.973379
0.973565
0.97379
0.97401
0.974201
0.974335
0.974403
0.97441
0.974377
0.974329
0.974288
0.974262
0.974252
0.974252
0.974263
0.974288
0.97433
0.974378
0.974411
0.974403
0.974335
0.974201
0.97401
0.97379
0.973565
0.973379
0.973237
0.973184
0.973154
0.973205
0.973346
0.973532
0.973759
0.973986
0.974187
0.974333
0.97441
0.974421
0.974384
0.974324
0.974268
0.974228
0.974209
0.974209
0.974228
0.974268
0.974325
0.974384
0.974422
0.974411
0.974333
0.974187
0.973986
0.973759
0.973532
0.973346
0.973205
0.973155
0.973124
0.973173
0.973313
0.973499
0.973731
0.973967
0.97418
0.974337
0.974423
0.974437
0.974396
0.974326
0.974256
0.974203
0.974176
0.974176
0.974203
0.974256
0.974326
0.974396
0.974438
0.974424
0.974337
0.97418
0.973967
0.973731
0.9735
0.973314
0.973173
0.973124
0.973089
0.973137
0.973277
0.973465
0.973703
0.973949
0.974175
0.974343
0.974438
0.974454
0.97441
0.974332
0.97425
0.974187
0.974152
0.974152
0.974187
0.974251
0.974332
0.97441
0.974454
0.974438
0.974343
0.974174
0.973949
0.973703
0.973465
0.973277
0.973137
0.973089
0.973047
0.973093
0.973233
0.973424
0.973669
0.973926
0.974164
0.974344
0.974445
0.974464
0.974418
0.974336
0.974247
0.974175
0.974136
0.974136
0.974175
0.974247
0.974336
0.974418
0.974464
0.974445
0.974343
0.974163
0.973926
0.973669
0.973424
0.973234
0.973093
0.973047
0.972995
0.97304
0.973179
0.973372
0.973623
0.97389
0.97414
0.97433
0.974438
0.97446
0.974414
0.97433
0.974238
0.974162
0.97412
0.97412
0.974162
0.974238
0.97433
0.974414
0.97446
0.974438
0.97433
0.97414
0.97389
0.973623
0.973372
0.973179
0.97304
0.972995
0.972932
0.972974
0.973112
0.973304
0.97356
0.973836
0.974097
0.974298
0.974413
0.974438
0.974393
0.974308
0.974216
0.97414
0.974097
0.974097
0.974139
0.974215
0.974307
0.974392
0.974437
0.974412
0.974297
0.974097
0.973836
0.97356
0.973305
0.973112
0.972974
0.972932
0.972858
0.972897
0.97303
0.97322
0.973477
0.973759
0.974031
0.974244
0.974368
0.974397
0.974352
0.974267
0.974175
0.974102
0.974061
0.974061
0.974101
0.974175
0.974266
0.974351
0.974396
0.974367
0.974242
0.97403
0.973759
0.973477
0.97322
0.973031
0.972897
0.972858
0.972773
0.972807
0.972935
0.973118
0.973373
0.973659
0.97394
0.974166
0.974303
0.974341
0.974297
0.97421
0.974117
0.974043
0.974004
0.974004
0.974043
0.974116
0.974209
0.974296
0.974339
0.974301
0.974165
0.973939
0.973658
0.973373
0.973119
0.972935
0.972807
0.972773
0.972678
0.972707
0.972827
0.973002
0.97325
0.973536
0.973825
0.974065
0.974219
0.97427
0.974232
0.974143
0.974044
0.973965
0.973922
0.973922
0.973964
0.974042
0.974141
0.97423
0.974268
0.974218
0.974064
0.973824
0.973536
0.97325
0.973002
0.972827
0.972707
0.972678
0.972575
0.972599
0.972709
0.972873
0.973113
0.973395
0.973689
0.973944
0.974117
0.974186
0.97416
0.97407
0.973962
0.973872
0.973821
0.973821
0.97387
0.97396
0.974068
0.974157
0.974184
0.974115
0.973942
0.973689
0.973395
0.973113
0.972873
0.972709
0.972599
0.972575
0.972467
0.972485
0.972586
0.972737
0.972965
0.973242
0.973538
0.973804
0.973998
0.974089
0.974079
0.973995
0.97388
0.973776
0.973716
0.973715
0.973775
0.973877
0.973992
0.974076
0.974087
0.973996
0.973803
0.973537
0.973241
0.972965
0.972737
0.972586
0.972485
0.972467
0.972358
0.972369
0.97246
0.972598
0.972814
0.973082
0.973378
0.973653
0.973864
0.973979
0.97399
0.973917
0.973803
0.973691
0.973624
0.973623
0.973689
0.9738
0.973914
0.973987
0.973976
0.973862
0.973651
0.973376
0.973081
0.972814
0.972598
0.97246
0.972369
0.972358
0.97225
0.972255
0.972335
0.97246
0.972663
0.972922
0.973215
0.973497
0.973724
0.97386
0.973893
0.973838
0.973733
0.973625
0.973557
0.973556
0.973623
0.97373
0.973835
0.97389
0.973857
0.973722
0.973495
0.973214
0.972921
0.972663
0.97246
0.972335
0.972255
0.97225
0.972146
0.972145
0.972215
0.972327
0.972517
0.972767
0.973057
0.973344
0.973585
0.97374
0.973794
0.97376
0.973672
0.973575
0.973513
0.973512
0.973573
0.973669
0.973756
0.973791
0.973737
0.973582
0.973343
0.973056
0.972766
0.972517
0.972327
0.972215
0.972145
0.972146
0.972048
0.972041
0.972102
0.9722
0.972378
0.972618
0.972907
0.973199
0.973452
0.973624
0.973698
0.973683
0.973613
0.973532
0.973479
0.973478
0.97353
0.973611
0.97368
0.973695
0.973622
0.97345
0.973198
0.972906
0.972617
0.972377
0.9722
0.972102
0.972041
0.972048
0.971958
0.971945
0.971996
0.972081
0.972245
0.972476
0.972764
0.973063
0.973329
0.973517
0.973608
0.973609
0.973554
0.973484
0.973438
0.973437
0.973483
0.973552
0.973607
0.973605
0.973515
0.973327
0.973062
0.972763
0.972475
0.972244
0.97208
0.971996
0.971945
0.971958
0.971875
0.971857
0.971897
0.971967
0.972117
0.972339
0.972626
0.972933
0.973212
0.973417
0.973522
0.973536
0.97349
0.973425
0.973382
0.973381
0.973424
0.973487
0.973533
0.97352
0.973415
0.973211
0.972932
0.972625
0.972338
0.972116
0.971966
0.971896
0.971857
0.971875
0.971799
0.971773
0.971802
0.971857
0.971991
0.972204
0.972489
0.972803
0.973096
0.973317
0.973437
0.97346
0.973418
0.973355
0.973311
0.97331
0.973353
0.973416
0.973458
0.973434
0.973315
0.973095
0.972802
0.972488
0.972203
0.971991
0.971856
0.971801
0.971773
0.971799
0.971725
0.971693
0.971709
0.971747
0.971866
0.972067
0.97235
0.972671
0.972977
0.973212
0.973346
0.973379
0.973342
0.973279
0.973234
0.973233
0.973277
0.973339
0.973377
0.973344
0.973211
0.972976
0.972671
0.97235
0.972067
0.971866
0.971747
0.971709
0.971692
0.971725
0.971652
0.971612
0.971616
0.971638
0.97174
0.97193
0.97221
0.972536
0.972852
0.973102
0.973249
0.973293
0.973262
0.973202
0.973158
0.973157
0.973201
0.97326
0.97329
0.973247
0.9731
0.972851
0.972535
0.972209
0.97193
0.97174
0.971637
0.971616
0.971611
0.971652
0.971578
0.97153
0.971522
0.971528
0.971615
0.971793
0.972069
0.972397
0.972723
0.972985
0.973146
0.973203
0.973183
0.973129
0.973088
0.973087
0.973128
0.973181
0.973201
0.973144
0.972983
0.972722
0.972396
0.972068
0.971793
0.971615
0.971528
0.971522
0.97153
0.971577
0.971502
0.971447
0.97143
0.971421
0.971494
0.971661
0.97193
0.972259
0.972591
0.972864
0.973041
0.973113
0.973105
0.973061
0.973024
0.973024
0.97306
0.973104
0.973111
0.973039
0.972863
0.97259
0.972258
0.97193
0.971661
0.971494
0.971421
0.971429
0.971447
0.971502
0.971427
0.971367
0.971342
0.971322
0.971383
0.971538
0.971798
0.972122
0.972458
0.972743
0.972935
0.973024
0.973031
0.972998
0.972967
0.972967
0.972997
0.97303
0.973023
0.972934
0.972741
0.972457
0.972122
0.971798
0.971538
0.971383
0.971322
0.971341
0.971367
0.971427
0.971358
0.971294
0.971264
0.971236
0.971286
0.971427
0.971674
0.971991
0.972327
0.972622
0.972831
0.972939
0.972963
0.972942
0.972917
0.972917
0.972941
0.972961
0.972937
0.972829
0.972621
0.972326
0.971991
0.971674
0.971427
0.971286
0.971237
0.971265
0.971294
0.971358
0.971303
0.971237
0.971205
0.97117
0.971207
0.971331
0.971561
0.971866
0.9722
0.972503
0.972729
0.972857
0.9729
0.972893
0.972876
0.972876
0.972892
0.972899
0.972856
0.972728
0.972502
0.972199
0.971865
0.971561
0.971332
0.971208
0.971171
0.971206
0.971237
0.971303
0.971271
0.971203
0.971169
0.971126
0.971149
0.971252
0.97146
0.971749
0.972079
0.97239
0.972632
0.972782
0.972845
0.972853
0.972844
0.972844
0.972852
0.972844
0.97278
0.972631
0.972389
0.972079
0.971749
0.971461
0.971253
0.97115
0.971127
0.97117
0.971204
0.971272
0.97127
0.971199
0.971161
0.971107
0.971111
0.97119
0.971374
0.971645
0.971968
0.972284
0.972543
0.972712
0.972797
0.972822
0.972822
0.972822
0.972821
0.972796
0.972711
0.972542
0.972284
0.971968
0.971645
0.971374
0.971191
0.971112
0.971108
0.971163
0.9712
0.971271
0.971303
0.971226
0.971181
0.971111
0.971093
0.971145
0.971303
0.971556
0.97187
0.97219
0.972461
0.97265
0.972755
0.972797
0.972808
0.972807
0.972797
0.972754
0.972649
0.97246
0.97219
0.97187
0.971556
0.971304
0.971146
0.971094
0.971113
0.971183
0.971228
0.971305
0.971364
0.97128
0.971224
0.971135
0.971093
0.971117
0.97125
0.971483
0.971788
0.972108
0.972388
0.972594
0.972717
0.972776
0.972796
0.972796
0.972776
0.972717
0.972593
0.972388
0.972107
0.971788
0.971483
0.97125
0.971118
0.971094
0.971137
0.971226
0.971282
0.971366
0.971443
0.971351
0.971282
0.971173
0.971106
0.971103
0.971211
0.971425
0.971719
0.972036
0.972322
0.97254
0.97268
0.972753
0.972781
0.972781
0.972753
0.972679
0.97254
0.972321
0.972035
0.971718
0.971425
0.971212
0.971104
0.971107
0.971175
0.971284
0.971353
0.971445
0.971525
0.971424
0.971344
0.971215
0.971125
0.971097
0.971181
0.971376
0.971657
0.971968
0.972257
0.972485
0.972637
0.972722
0.972758
0.972758
0.972722
0.972637
0.972484
0.972257
0.971968
0.971657
0.971376
0.971182
0.971098
0.971127
0.971217
0.971345
0.971426
0.971527
0.971598
0.971489
0.971398
0.971252
0.971142
0.971091
0.971153
0.971328
0.971594
0.971898
0.972187
0.972421
0.972584
0.972679
0.97272
0.97272
0.972679
0.972584
0.972421
0.972187
0.971898
0.971594
0.971328
0.971154
0.971092
0.971144
0.971254
0.9714
0.971491
0.9716
0.971655
0.971539
0.971439
0.971278
0.97115
0.971077
0.971117
0.971272
0.971523
0.971817
0.972104
0.972344
0.972516
0.972619
0.972665
0.972665
0.972619
0.972515
0.972344
0.972104
0.971817
0.971523
0.971272
0.971118
0.971078
0.971151
0.97128
0.971441
0.971541
0.971657
0.971696
0.971572
0.971464
0.971289
0.971145
0.971051
0.971069
0.971202
0.971436
0.971719
0.972004
0.972248
0.972428
0.97254
0.97259
0.97259
0.97254
0.972428
0.972248
0.972003
0.971719
0.971436
0.971203
0.971069
0.971052
0.971146
0.971291
0.971466
0.971574
0.971698
0.971724
0.971591
0.971477
0.971289
0.971128
0.971013
0.971008
0.971118
0.971332
0.971602
0.971883
0.972132
0.972322
0.972442
0.972498
0.972498
0.972442
0.972322
0.972132
0.971883
0.971602
0.971332
0.971119
0.971009
0.971014
0.97113
0.97129
0.971479
0.971594
0.971726
0.971748
0.971606
0.971485
0.971283
0.971106
0.97097
0.97094
0.971024
0.971215
0.97147
0.971745
0.971998
0.972199
0.972331
0.972393
0.972393
0.972331
0.972199
0.971998
0.971745
0.97147
0.971215
0.971024
0.97094
0.970971
0.971108
0.971285
0.971487
0.971608
0.97175
0.971776
0.971624
0.971496
0.97128
0.971087
0.970927
0.97087
0.970926
0.971092
0.971328
0.971596
0.971853
0.972065
0.972209
0.972279
0.972279
0.972209
0.972065
0.971853
0.971596
0.971328
0.971092
0.970927
0.970871
0.970928
0.971088
0.971282
0.971498
0.971626
0.971779
0.971817
0.971651
0.971517
0.971287
0.971077
0.970893
0.970808
0.970832
0.970969
0.971185
0.971444
0.971704
0.971927
0.972083
0.972161
0.972161
0.972084
0.971927
0.971704
0.971444
0.971185
0.970969
0.970833
0.970809
0.970894
0.971078
0.971289
0.971519
0.971653
0.971819
0.971874
0.971694
0.971552
0.971307
0.97108
0.970872
0.970756
0.970747
0.970853
0.971046
0.971294
0.971555
0.971788
0.971957
0.972042
0.972042
0.971957
0.971789
0.971556
0.971294
0.971046
0.970853
0.970748
0.970757
0.970873
0.971081
0.971309
0.971554
0.971697
0.971876
0.971953
0.971757
0.971605
0.971345
0.971099
0.970864
0.970717
0.970672
0.970745
0.970914
0.97115
0.971411
0.971652
0.97183
0.971921
0.971921
0.97183
0.971652
0.971412
0.97115
0.970914
0.970746
0.970672
0.970717
0.970865
0.9711
0.971346
0.971607
0.971759
0.971955
0.972055
0.97184
0.971679
0.9714
0.971134
0.970869
0.970687
0.970604
0.970644
0.970787
0.97101
0.971269
0.971514
0.9717
0.971796
0.971796
0.9717
0.971515
0.971269
0.97101
0.970787
0.970644
0.970605
0.970687
0.97087
0.971135
0.971402
0.971681
0.971842
0.972058
0.972181
0.971945
0.971774
0.971476
0.971184
0.970885
0.970664
0.970541
0.970545
0.970662
0.970869
0.971122
0.971369
0.971558
0.971657
0.971658
0.971559
0.971369
0.971123
0.970869
0.970662
0.970545
0.970541
0.970665
0.970886
0.971186
0.971477
0.971776
0.971948
0.972184
0.97233
0.972071
0.97189
0.97157
0.97125
0.970911
0.970646
0.970479
0.970446
0.970534
0.970722
0.970964
0.971207
0.971397
0.971497
0.971498
0.971397
0.971207
0.970964
0.970722
0.970534
0.970446
0.97048
0.970647
0.970912
0.971251
0.971572
0.971892
0.972074
0.972332
0.972498
0.972214
0.972024
0.971681
0.971329
0.970945
0.970632
0.970419
0.970346
0.970401
0.970564
0.970788
0.97102
0.971206
0.971307
0.971307
0.971207
0.971021
0.970788
0.970564
0.970401
0.970346
0.970419
0.970633
0.970946
0.97133
0.971683
0.972026
0.972217
0.9725
0.97268
0.972369
0.972168
0.971803
0.971415
0.970985
0.970623
0.970362
0.970246
0.970264
0.970395
0.970593
0.970808
0.970984
0.971081
0.971081
0.970985
0.970808
0.970594
0.970395
0.970264
0.970246
0.970362
0.970623
0.970985
0.971417
0.971805
0.972171
0.972371
0.972682
0.972871
0.972527
0.972317
0.971927
0.971504
0.971027
0.970617
0.970309
0.970148
0.970124
0.970216
0.970381
0.970571
0.970732
0.970821
0.970821
0.970732
0.970571
0.970382
0.970216
0.970124
0.970148
0.970309
0.970617
0.971028
0.971506
0.971929
0.972319
0.97253
0.972873
0.973064
0.972684
0.972462
0.972048
0.97159
0.971068
0.970612
0.970257
0.97005
0.969979
0.970028
0.970154
0.970313
0.970452
0.970531
0.970531
0.970452
0.970313
0.970154
0.970028
0.969979
0.97005
0.970257
0.970612
0.971068
0.971591
0.97205
0.972464
0.972687
0.973067
0.973255
0.972834
0.972599
0.972161
0.971669
0.971105
0.970605
0.970204
0.969946
0.969825
0.969826
0.969911
0.970035
0.97015
0.970215
0.970215
0.970149
0.970035
0.969911
0.969826
0.969825
0.969946
0.970203
0.970605
0.971105
0.97167
0.972163
0.972602
0.972837
0.973258
0.973439
0.972974
0.972727
0.972266
0.971742
0.971138
0.970594
0.970143
0.969832
0.969656
0.969606
0.969647
0.969736
0.969824
0.969875
0.969874
0.969823
0.969736
0.969647
0.969606
0.969656
0.969832
0.970143
0.970594
0.971138
0.971743
0.972268
0.972729
0.972977
0.973442
0.973615
0.973103
0.972847
0.972368
0.971813
0.971168
0.970578
0.970073
0.969703
0.969467
0.969363
0.969359
0.969411
0.969472
0.969509
0.969509
0.969472
0.96941
0.969359
0.969363
0.969467
0.969702
0.970073
0.970578
0.971168
0.971813
0.972369
0.97285
0.973106
0.973618
0.973784
0.973223
0.972963
0.972468
0.971883
0.971197
0.970557
0.969993
0.969556
0.969256
0.969094
0.969041
0.969055
0.969092
0.969116
0.969116
0.969091
0.969055
0.96904
0.969094
0.969256
0.969556
0.969992
0.970557
0.971197
0.971884
0.97247
0.972965
0.973227
0.973788
0.973955
0.973343
0.97308
0.972572
0.971956
0.971225
0.97053
0.9699
0.969393
0.969023
0.968797
0.968692
0.968667
0.968679
0.968694
0.968693
0.968679
0.968667
0.968691
0.968797
0.969022
0.969393
0.9699
0.97053
0.971225
0.971956
0.972574
0.973083
0.973347
0.973959
0.974139
0.973473
0.973206
0.972683
0.972032
0.971252
0.970496
0.969795
0.969211
0.968766
0.968472
0.96831
0.968245
0.968233
0.968238
0.968238
0.968233
0.968244
0.968309
0.968472
0.968765
0.969211
0.969794
0.970496
0.971252
0.972032
0.972684
0.973209
0.973476
0.974143
0.974351
0.973625
0.97335
0.972805
0.972112
0.971277
0.970453
0.969673
0.969008
0.968482
0.968115
0.967892
0.967784
0.967748
0.967743
0.967743
0.967748
0.967783
0.967891
0.968115
0.968482
0.969007
0.969672
0.970452
0.971277
0.972113
0.972806
0.973353
0.973628
0.974355
0.974604
0.973814
0.973523
0.972946
0.972202
0.971301
0.9704
0.969534
0.96878
0.968169
0.967723
0.967435
0.967281
0.967219
0.967203
0.967203
0.967218
0.96728
0.967434
0.967722
0.968168
0.968779
0.969533
0.970399
0.971301
0.972203
0.972947
0.973526
0.973817
0.974608
0.974911
0.974052
0.973738
0.973117
0.972309
0.971329
0.970339
0.969378
0.968527
0.967822
0.967293
0.966935
0.966731
0.966639
0.96661
0.96661
0.966639
0.96673
0.966934
0.967292
0.967821
0.968526
0.969377
0.970338
0.971329
0.972309
0.973118
0.97374
0.974055
0.974914
0.97528
0.974349
0.974004
0.973329
0.972442
0.971369
0.970277
0.969208
0.968249
0.967442
0.966823
0.966391
0.966132
0.966006