# vtk DataFile Version 3.0
Grid data
ASCII
DATASET STRUCTURED_POINTS
DIMENSIONS 30 300 1
ORIGIN 0 0 0
SPACING 0.00833333 0.00333333 1
POINT_DATA 9000
SCALARS rho double
LOOKUP_TABLE default
0.978537
0.978517
0.978481
0.97844
0.978404
0.97838
0.978372
0.97838
0.978402
0.978432
0.978467
0.978502
0.978532
0.978555
0.978567
0.978567
0.978555
0.978532
0.978502
0.978467
0.978432
0.978402
0.97838
0.978372
0.97838
0.978404
0.978441
0.978481
0.978517
0.978535
0.977588
0.977561
0.977514
0.977464
0.977424
0.977406
0.977409
0.977428
0.977459
0.977498
0.977542
0.977587
0.977629
0.977661
0.977679
0.977679
0.977661
0.977629
0.977587
0.977542
0.977498
0.977459
0.977428
0.977408
0.977406
0.977424
0.977464
0.977515
0.977563
0.977591
0.977825
0.977795
0.977748
0.977702
0.977672
0.977666
0.977679
0.977707
0.977741
0.977781
0.977826
0.977874
0.977921
0.977958
0.97798
0.97798
0.977959
0.977921
0.977875
0.977826
0.97778
0.97774
0.977705
0.977678
0.977664
0.977672
0.977704
0.977752
0.9778
0.977829
0.978633
0.978601
0.978551
0.978504
0.978473
0.978467
0.978482
0.97851
0.978546
0.978587
0.978634
0.978685
0.978735
0.978776
0.978799
0.9788
0.978777
0.978736
0.978685
0.978634
0.978586
0.978543
0.978507
0.978479
0.978465
0.978473
0.978506
0.978557
0.978608
0.97864
0.979659
0.979626
0.979576
0.979527
0.979493
0.979483
0.979493
0.979515
0.979545
0.979581
0.979622
0.979668
0.979713
0.979751
0.979773
0.979773
0.979752
0.979714
0.979668
0.979622
0.979579
0.979542
0.979511
0.979488
0.97948
0.979493
0.97953
0.979583
0.979635
0.979669
0.980588
0.980553
0.980499
0.980442
0.980397
0.980374
0.980372
0.980384
0.980405
0.980434
0.980467
0.980505
0.980542
0.980573
0.98059
0.98059
0.980573
0.980543
0.980505
0.980467
0.980432
0.980402
0.980379
0.980366
0.980371
0.980397
0.980445
0.980506
0.980563
0.980598
0.98126
0.981222
0.981164
0.981096
0.981038
0.981
0.980983
0.980984
0.980997
0.981017
0.981041
0.981066
0.981091
0.98111
0.981122
0.981122
0.981111
0.981091
0.981066
0.98104
0.981015
0.980993
0.98098
0.980978
0.980996
0.981037
0.981099
0.98117
0.981231
0.981269
0.981604
0.981565
0.981501
0.981426
0.981357
0.981307
0.981281
0.981275
0.981281
0.981293
0.981306
0.981319
0.981331
0.98134
0.981345
0.981345
0.98134
0.981331
0.981319
0.981305
0.981291
0.981278
0.981271
0.981277
0.981305
0.981357
0.981428
0.981507
0.981571
0.981611
0.981679
0.98164
0.981576
0.981498
0.981425
0.981372
0.981342
0.981331
0.981333
0.981338
0.981343
0.981346
0.981347
0.981348
0.981348
0.981348
0.981348
0.981347
0.981346
0.981342
0.981337
0.981331
0.981329
0.981339
0.981371
0.981426
0.9815
0.98158
0.981645
0.981685
0.981594
0.981556
0.981494
0.981418
0.981348
0.981296
0.981265
0.981253
0.98125
0.98125
0.981249
0.981245
0.98124
0.981235
0.981232
0.981232
0.981235
0.981239
0.981244
0.981248
0.981249
0.981249
0.981251
0.981264
0.981295
0.981349
0.98142
0.981497
0.981559
0.981598
0.981457
0.981421
0.981363
0.981292
0.981227
0.981176
0.981145
0.98113
0.981123
0.981118
0.981112
0.981105
0.981097
0.98109
0.981086
0.981086
0.98109
0.981096
0.981104
0.981112
0.981117
0.981122
0.981129
0.981145
0.981177
0.981228
0.981294
0.981366
0.981423
0.981459
0.981338
0.981306
0.981253
0.981187
0.981124
0.981074
0.98104
0.981019
0.981007
0.980999
0.98099
0.980981
0.980973
0.980966
0.980962
0.980962
0.980966
0.980972
0.980981
0.98099
0.980998
0.981007
0.981019
0.98104
0.981075
0.981125
0.981189
0.981255
0.981308
0.981341
0.981274
0.981244
0.981195
0.981132
0.981069
0.981015
0.980975
0.980949
0.980932
0.98092
0.980911
0.980901
0.980893
0.980886
0.980883
0.980883
0.980886
0.980893
0.980901
0.98091
0.98092
0.980931
0.980948
0.980975
0.981016
0.98107
0.981134
0.981198
0.981246
0.981276
0.981262
0.981234
0.981188
0.981124
0.981058
0.980998
0.980951
0.980919
0.980898
0.980885
0.980875
0.980866
0.980858
0.980852
0.980848
0.980848
0.980852
0.980858
0.980866
0.980875
0.980884
0.980897
0.980918
0.980951
0.980998
0.981059
0.981126
0.98119
0.981236
0.981265
0.981285
0.981258
0.981212
0.981146
0.981075
0.981008
0.980954
0.980917
0.980894
0.980881
0.980872
0.980864
0.980856
0.98085
0.980846
0.980846
0.98085
0.980856
0.980864
0.980872
0.98088
0.980893
0.980916
0.980954
0.981008
0.981075
0.981148
0.981214
0.98126
0.981287
0.98132
0.981293
0.981246
0.981177
0.9811
0.981026
0.980967
0.980927
0.980903
0.980891
0.980884
0.980877
0.98087
0.980864
0.98086
0.98086
0.980864
0.98087
0.980877
0.980884
0.980891
0.980903
0.980926
0.980967
0.981026
0.9811
0.981178
0.981248
0.981295
0.981322
0.981352
0.981324
0.981274
0.981201
0.981119
0.981041
0.980978
0.980936
0.980913
0.980903
0.980897
0.980892
0.980886
0.980881
0.980877
0.980877
0.980881
0.980886
0.980892
0.980897
0.980902
0.980913
0.980936
0.980978
0.981041
0.98112
0.981202
0.981276
0.981326
0.981354
0.981373
0.981343
0.98129
0.981212
0.981126
0.981045
0.98098
0.980938
0.980916
0.980908
0.980904
0.980902
0.980898
0.980894
0.980892
0.980892
0.980894
0.980898
0.980902
0.980904
0.980907
0.980916
0.980938
0.98098
0.981045
0.981127
0.981214
0.981291
0.981345
0.981374
0.981382
0.981351
0.981292
0.98121
0.98112
0.981037
0.980973
0.980932
0.980911
0.980904
0.980904
0.980904
0.980903
0.980902
0.9809
0.9809
0.980902
0.980903
0.980904
0.980904
0.980904
0.980911
0.980932
0.980973
0.981038
0.981121
0.981211
0.981294
0.981352
0.981384
0.981384
0.981349
0.981285
0.981198
0.981105
0.981021
0.980958
0.980918
0.9809
0.980895
0.980897
0.9809
0.980903
0.980904
0.980905
0.980905
0.980904
0.980903
0.9809
0.980897
0.980895
0.9809
0.980918
0.980958
0.981022
0.981106
0.981199
0.981286
0.98135
0.981385
0.98138
0.981342
0.981273
0.98118
0.981084
0.981
0.980939
0.980901
0.980884
0.980881
0.980885
0.980892
0.980898
0.980903
0.980906
0.980906
0.980903
0.980898
0.980892
0.980885
0.980881
0.980884
0.980902
0.980939
0.981001
0.981085
0.981181
0.981274
0.981343
0.981381
0.981375
0.981333
0.981258
0.981161
0.981062
0.980978
0.980918
0.980883
0.980867
0.980865
0.980871
0.98088
0.98089
0.980898
0.980903
0.980903
0.980898
0.98089
0.98088
0.980871
0.980865
0.980867
0.980883
0.980918
0.980979
0.981063
0.981162
0.981259
0.981334
0.981376
0.981369
0.981325
0.981244
0.981142
0.981041
0.980956
0.980898
0.980863
0.980849
0.980847
0.980853
0.980865
0.980877
0.980889
0.980895
0.980895
0.980889
0.980877
0.980865
0.980853
0.980847
0.980849
0.980864
0.980898
0.980957
0.981041
0.981143
0.981245
0.981325
0.98137
0.981364
0.981317
0.981232
0.981126
0.981022
0.980936
0.980878
0.980844
0.980829
0.980827
0.980833
0.980845
0.98086
0.980873
0.980881
0.980881
0.980873
0.98086
0.980845
0.980833
0.980827
0.980829
0.980844
0.980878
0.980937
0.981022
0.981127
0.981233
0.981317
0.981365
0.98136
0.981311
0.981223
0.981113
0.981006
0.980919
0.980859
0.980824
0.980808
0.980804
0.980809
0.98082
0.980835
0.980849
0.980857
0.980857
0.980849
0.980835
0.980821
0.980809
0.980804
0.980808
0.980824
0.980859
0.980919
0.981006
0.981114
0.981224
0.981311
0.981361
0.981359
0.981308
0.981218
0.981105
0.980994
0.980903
0.980841
0.980803
0.980785
0.980779
0.980781
0.98079
0.980803
0.980816
0.980823
0.980823
0.980816
0.980803
0.98079
0.980781
0.980779
0.980785
0.980804
0.980841
0.980904
0.980994
0.981105
0.981218
0.981308
0.981359
0.98136
0.981308
0.981217
0.981101
0.980986
0.980891
0.980824
0.980783
0.980761
0.980751
0.98075
0.980755
0.980764
0.980774
0.98078
0.98078
0.980774
0.980764
0.980755
0.98075
0.980751
0.980761
0.980783
0.980825
0.980892
0.980986
0.981101
0.981217
0.981309
0.98136
0.981365
0.981313
0.98122
0.981101
0.980982
0.980882
0.98081
0.980763
0.980737
0.980723
0.980717
0.980716
0.98072
0.980725
0.980728
0.980728
0.980725
0.98072
0.980717
0.980717
0.980723
0.980737
0.980764
0.98081
0.980883
0.980983
0.981102
0.98122
0.981313
0.981365
0.981374
0.981322
0.981228
0.981106
0.980983
0.980877
0.980798
0.980745
0.980714
0.980695
0.980683
0.980676
0.980673
0.980672
0.980671
0.980671
0.980672
0.980673
0.980677
0.980684
0.980695
0.980714
0.980746
0.980798
0.980877
0.980983
0.981107
0.981228
0.981322
0.981374
0.981387
0.981334
0.981239
0.981115
0.980987
0.980875
0.980789
0.98073
0.980693
0.98067
0.980652
0.980638
0.980627
0.980618
0.980614
0.980614
0.980618
0.980627
0.980638
0.980652
0.98067
0.980694
0.980731
0.980789
0.980875
0.980988
0.981116
0.98124
0.981334
0.981387
0.981402
0.981349
0.981254
0.981127
0.980994
0.980876
0.980783
0.980719
0.980677
0.980649
0.980626
0.980604
0.980585
0.980569
0.98056
0.98056
0.980569
0.980585
0.980604
0.980626
0.980649
0.980678
0.980719
0.980784
0.980876
0.980995
0.981127
0.981254
0.981349
0.981402
0.98142
0.981366
0.98127
0.981141
0.981004
0.98088
0.980782
0.980712
0.980666
0.980633
0.980605
0.980577
0.98055
0.980528
0.980515
0.980515
0.980528
0.98055
0.980578
0.980606
0.980634
0.980666
0.980712
0.980782
0.98088
0.981005
0.981142
0.98127
0.981366
0.98142
0.981439
0.981385
0.981288
0.981157
0.981016
0.980887
0.980784
0.98071
0.98066
0.980625
0.980593
0.98056
0.980526
0.980499
0.980483
0.980483
0.980499
0.980527
0.98056
0.980593
0.980625
0.980661
0.98071
0.980784
0.980888
0.981017
0.981157
0.981289
0.981385
0.981439
0.98146
0.981406
0.981308
0.981174
0.98103
0.980897
0.98079
0.980713
0.98066
0.980622
0.980588
0.980552
0.980515
0.980484
0.980466
0.980466
0.980484
0.980515
0.980552
0.980588
0.980623
0.980661
0.980713
0.98079
0.980898
0.98103
0.981174
0.981308
0.981406
0.98146
0.981483
0.981427
0.981328
0.981192
0.981046
0.98091
0.9808
0.98072
0.980666
0.980626
0.980591
0.980554
0.980517
0.980485
0.980467
0.980467
0.980485
0.980517
0.980554
0.980591
0.980627
0.980666
0.98072
0.9808
0.98091
0.981046
0.981192
0.981328
0.981427
0.981483
0.981505
0.981449
0.981348
0.98121
0.981061
0.980923
0.980811
0.98073
0.980674
0.980635
0.980601
0.980566
0.980531
0.980501
0.980484
0.980484
0.980502
0.980532
0.980567
0.980602
0.980636
0.980675
0.98073
0.980811
0.980923
0.981061
0.98121
0.981348
0.981449
0.981506
0.981527
0.98147
0.981368
0.981228
0.981077
0.980936
0.980822
0.98074
0.980685
0.980648
0.980617
0.980588
0.980558
0.980532
0.980517
0.980517
0.980532
0.980558
0.980588
0.980618
0.980648
0.980685
0.98074
0.980822
0.980936
0.981077
0.981228
0.981368
0.98147
0.981527
0.981547
0.981489
0.981385
0.981243
0.98109
0.980947
0.980831
0.980748
0.980694
0.980661
0.980637
0.980615
0.980593
0.980574
0.980563
0.980563
0.980575
0.980594
0.980616
0.980638
0.980661
0.980695
0.980748
0.980831
0.980947
0.98109
0.981243
0.981385
0.981489
0.981547
0.981561
0.981502
0.981399
0.981255
0.981099
0.980953
0.980835
0.980751
0.9807
0.980673
0.980657
0.980646
0.980635
0.980624
0.980618
0.980618
0.980625
0.980635
0.980647
0.980658
0.980673
0.980701
0.980751
0.980835
0.980953
0.981099
0.981255
0.981399
0.981502
0.981561
0.981568
0.98151
0.981406
0.981261
0.981102
0.980952
0.980831
0.980748
0.980701
0.980681
0.980676
0.980676
0.980677
0.980677
0.980676
0.980677
0.980678
0.980678
0.980677
0.980677
0.980681
0.980701
0.980748
0.980831
0.980952
0.981101
0.981261
0.981406
0.98151
0.981568
0.981567
0.981509
0.981406
0.981259
0.981096
0.980943
0.98082
0.980737
0.980695
0.980683
0.980689
0.980703
0.980717
0.980727
0.980732
0.980732
0.980727
0.980717
0.980704
0.98069
0.980683
0.980695
0.980737
0.98082
0.980943
0.981096
0.981258
0.981405
0.981509
0.981567
0.981558
0.981499
0.981396
0.981247
0.981082
0.980924
0.980799
0.980718
0.980681
0.980678
0.980696
0.980722
0.980748
0.980769
0.98078
0.98078
0.980769
0.980749
0.980723
0.980696
0.980678
0.980681
0.980718
0.980799
0.980924
0.981081
0.981247
0.981396
0.981499
0.981557
0.98154
0.981482
0.981378
0.981227
0.981058
0.980897
0.980771
0.980692
0.98066
0.980665
0.980694
0.980732
0.98077
0.9808
0.980816
0.980816
0.9808
0.980771
0.980733
0.980695
0.980666
0.98066
0.980692
0.980771
0.980897
0.981057
0.981226
0.981378
0.981481
0.98154
0.981518
0.981459
0.981353
0.981198
0.981026
0.980863
0.980736
0.980659
0.980633
0.980646
0.980684
0.980733
0.98078
0.980818
0.980838
0.980838
0.980818
0.980781
0.980734
0.980685
0.980647
0.980633
0.98066
0.980736
0.980863
0.981026
0.981198
0.981352
0.981458
0.981518
0.981494
0.981433
0.981324
0.981165
0.980989
0.980824
0.980698
0.980624
0.980601
0.980621
0.980667
0.980724
0.98078
0.980823
0.980848
0.980848
0.980824
0.980781
0.980725
0.980668
0.980622
0.980602
0.980624
0.980698
0.980824
0.980989
0.981164
0.981323
0.981432
0.981494
0.981472
0.981407
0.981294
0.98113
0.980952
0.980786
0.98066
0.980587
0.980568
0.980592
0.980644
0.980707
0.98077
0.980819
0.980846
0.980847
0.98082
0.980771
0.980709
0.980645
0.980593
0.980569
0.980588
0.98066
0.980786
0.980951
0.98113
0.981293
0.981407
0.981471
0.981454
0.981385
0.981267
0.981099
0.980918
0.980751
0.980626
0.980554
0.980536
0.980562
0.980617
0.980686
0.980754
0.980808
0.980838
0.980838
0.980808
0.980754
0.980687
0.980618
0.980563
0.980537
0.980555
0.980626
0.980751
0.980918
0.981099
0.981267
0.981385
0.981453
0.981442
0.98137
0.981247
0.981075
0.980892
0.980725
0.9806
0.980527
0.980508
0.980534
0.98059
0.980662
0.980734
0.980793
0.980826
0.980826
0.980794
0.980735
0.980663
0.980591
0.980535
0.980509
0.980527
0.9806
0.980725
0.980892
0.981075
0.981247
0.981369
0.981441
0.981437
0.981362
0.981236
0.981062
0.980878
0.98071
0.980584
0.980509
0.980487
0.980509
0.980565
0.980638
0.980715
0.980778
0.980814
0.980814
0.980778
0.980715
0.980639
0.980566
0.98051
0.980487
0.980509
0.980584
0.98071
0.980878
0.981061
0.981236
0.981361
0.981437
0.98144
0.981362
0.981236
0.981061
0.980877
0.980709
0.980581
0.980502
0.980474
0.980491
0.980544
0.980618
0.980697
0.980763
0.980802
0.980802
0.980764
0.980698
0.980619
0.980545
0.980492
0.980475
0.980502
0.980581
0.980709
0.980877
0.98106
0.981236
0.981362
0.981439
0.981449
0.98137
0.981246
0.981072
0.98089
0.980722
0.980591
0.980506
0.980471
0.980482
0.98053
0.980602
0.980681
0.98075
0.980789
0.98079
0.98075
0.980682
0.980603
0.980531
0.980483
0.980472
0.980507
0.980592
0.980723
0.98089
0.981072
0.981246
0.98137
0.981449
0.981463
0.981385
0.981265
0.981095
0.980917
0.980749
0.980614
0.980522
0.980479
0.980481
0.980522
0.98059
0.980668
0.980736
0.980776
0.980776
0.980737
0.980669
0.980591
0.980523
0.980482
0.98048
0.980523
0.980615
0.980749
0.980917
0.981095
0.981265
0.981385
0.981463
0.98148
0.981404
0.981291
0.981127
0.980953
0.980785
0.980646
0.980547
0.980495
0.980488
0.980522
0.980583
0.980657
0.980721
0.980759
0.980759
0.980722
0.980657
0.980584
0.980523
0.980489
0.980495
0.980548
0.980647
0.980785
0.980953
0.981127
0.98129
0.981404
0.98148
0.981498
0.981426
0.98132
0.981164
0.980994
0.980827
0.980684
0.980577
0.980516
0.9805
0.980525
0.980579
0.980645
0.980703
0.980738
0.980738
0.980704
0.980645
0.98058
0.980526
0.980501
0.980516
0.980578
0.980685
0.980827
0.980995
0.981164
0.98132
0.981426
0.981498
0.981515
0.981447
0.98135
0.981201
0.981037
0.98087
0.980722
0.980608
0.980538
0.980513
0.98053
0.980574
0.980631
0.980682
0.980712
0.980712
0.980682
0.980632
0.980575
0.980531
0.980514
0.980539
0.980609
0.980723
0.98087
0.981037
0.981202
0.98135
0.981447
0.981515
0.981531
0.981466
0.981378
0.981236
0.981076
0.980908
0.980757
0.980635
0.980557
0.980524
0.980532
0.980567
0.980613
0.980655
0.98068
0.98068
0.980656
0.980614
0.980568
0.980533
0.980525
0.980558
0.980636
0.980757
0.980909
0.981077
0.981237
0.981378
0.981467
0.981531
0.981544
0.981483
0.981402
0.981265
0.981108
0.980939
0.980783
0.980655
0.980569
0.980528
0.980528
0.980554
0.980591
0.980625
0.980645
0.980645
0.980625
0.980591
0.980554
0.980529
0.980529
0.98057
0.980656
0.980784
0.980939
0.981109
0.981266
0.981402
0.981483
0.981544
0.981553
0.981495
0.981418
0.981286
0.98113
0.980959
0.980798
0.980664
0.980571
0.980522
0.980514
0.980532
0.980561
0.980589
0.980605
0.980605
0.980589
0.980562
0.980533
0.980515
0.980523
0.980571
0.980664
0.980799
0.980959
0.981131
0.981286
0.981419
0.981495
0.981554
0.981558
0.9815
0.981427
0.981295
0.98114
0.980965
0.9808
0.980659
0.980559
0.980503
0.980488
0.9805
0.980524
0.980548
0.980562
0.980562
0.980548
0.980525
0.9805
0.980489
0.980504
0.98056
0.98066
0.9808
0.980965
0.98114
0.981296
0.981427
0.9815
0.981559
0.981557
0.981498
0.981425
0.981292
0.981135
0.980957
0.980787
0.98064
0.980532
0.98047
0.980448
0.980455
0.980478
0.980501
0.980515
0.980515
0.980501
0.980478
0.980456
0.980449
0.98047
0.980533
0.98064
0.980787
0.980957
0.981135
0.981292
0.981425
0.981498
0.981557
0.981548
0.981486
0.981412
0.981276
0.981115
0.980933
0.980758
0.980605
0.980491
0.980421
0.980394
0.980399
0.980422
0.980447
0.980464
0.980464
0.980447
0.980422
0.980399
0.980395
0.980422
0.980491
0.980606
0.980759
0.980933
0.981115
0.981276
0.981412
0.981486
0.981548
0.98153
0.981465
0.981388
0.981246
0.981081
0.980895
0.980716
0.980556
0.980435
0.980358
0.980326
0.98033
0.980356
0.980386
0.980406
0.980406
0.980387
0.980356
0.980331
0.980327
0.980359
0.980435
0.980557
0.980716
0.980895
0.981082
0.981247
0.981388
0.981465
0.981531
0.981506
0.981436
0.981355
0.981206
0.981037
0.980845
0.980661
0.980495
0.980366
0.980283
0.980247
0.980252
0.980282
0.980318
0.980342
0.980342
0.980318
0.980282
0.980252
0.980247
0.980283
0.980367
0.980495
0.980661
0.980845
0.981037
0.981207
0.981355
0.981436
0.981507
0.981478
0.981402
0.981316
0.98116
0.980984
0.980787
0.980596
0.980424
0.980288
0.980198
0.980158
0.980164
0.980198
0.980241
0.980269
0.980269
0.980241
0.980198
0.980164
0.980159
0.980198
0.980288
0.980424
0.980597
0.980787
0.980985
0.98116
0.981316
0.981402
0.981479
0.98145
0.981367
0.981276
0.981112
0.980929
0.980724
0.980527
0.980346
0.980203
0.980106
0.980063
0.980068
0.980106
0.980154
0.980186
0.980186
0.980154
0.980106
0.980068
0.980063
0.980106
0.980203
0.980347
0.980527
0.980724
0.98093
0.981113
0.981276
0.981368
0.981451
0.981427
0.981336
0.98124
0.981068
0.980877
0.980662
0.980455
0.980266
0.980114
0.98001
0.979962
0.979966
0.980005
0.980056
0.98009
0.98009
0.980056
0.980005
0.979965
0.979962
0.98001
0.980114
0.980266
0.980456
0.980662
0.980877
0.981068
0.98124
0.981337
0.981427
0.981413
0.981314
0.981213
0.981032
0.980831
0.980604
0.980386
0.980185
0.980024
0.979911
0.979857
0.979857
0.979895
0.979945
0.97998
0.97998
0.979945
0.979895
0.979856
0.979857
0.979912
0.980024
0.980186
0.980386
0.980604
0.980831
0.981032
0.981214
0.981315
0.981413
0.981413
0.981306
0.9812
0.981008
0.980796
0.980554
0.980322
0.980108
0.979934
0.979812
0.979748
0.97974
0.979773
0.97982
0.979853
0.979853
0.97982
0.979773
0.97974
0.979748
0.979812
0.979934
0.980108
0.980322
0.980554
0.980796
0.981009
0.9812
0.981306
0.981414
0.98143
0.981313
0.981202
0.980999
0.980773
0.980515
0.980266
0.980035
0.979846
0.97971
0.979634
0.979615
0.979638
0.979678
0.979707
0.979707
0.979678
0.979638
0.979615
0.979634
0.97971
0.979846
0.980035
0.980266
0.980515
0.980773
0.981
0.981202
0.981314
0.981431
0.981467
0.981339
0.981222
0.981007
0.980766
0.980489
0.98022
0.979968
0.97976
0.979606
0.979514
0.97948
0.979489
0.979518
0.979541
0.979541
0.979518
0.979489
0.979479
0.979514
0.979606
0.97976
0.979968
0.98022
0.980489
0.980766
0.981008
0.981223
0.98134
0.981468
0.981524
0.981383
0.981261
0.981033
0.980776
0.980477
0.980184
0.979908
0.979676
0.979498
0.979385
0.979332
0.979323
0.979338
0.979353
0.979353
0.979338
0.979323
0.979331
0.979385
0.979498
0.979676
0.979908
0.980184
0.980477
0.980776
0.981034
0.981262
0.981384
0.981525
0.981601
0.981445
0.981318
0.981078
0.980803
0.980479
0.980159
0.979854
0.979594
0.979388
0.979248
0.97917
0.979141
0.979139
0.979145
0.979145
0.979139
0.979141
0.97917
0.979248
0.979388
0.979593
0.979854
0.980159
0.980479
0.980803
0.981078
0.981319
0.981446
0.981602
0.981696
0.981525
0.981395
0.981141
0.980847
0.980496
0.980146
0.979808
0.979514
0.979275
0.979103
0.978996
0.978941
0.97892
0.978916
0.978916
0.97892
0.978941
0.978996
0.979103
0.979275
0.979514
0.979808
0.980146
0.980496
0.980847
0.981141
0.981395
0.981526
0.981698
0.981813
0.981624
0.981489
0.981222
0.980907
0.980527
0.980143
0.979769
0.979437
0.97916
0.978951
0.978809
0.978725
0.978684
0.978668
0.978668
0.978684
0.978725
0.978809
0.978951
0.97916
0.979437
0.979769
0.980143
0.980527
0.980908
0.981222
0.98149
0.981625
0.981814
0.98195
0.981741
0.981602
0.981321
0.980984
0.980571
0.980152
0.979738
0.979365
0.979045
0.978794
0.978613
0.978497
0.978432
0.978405
0.978405
0.978432
0.978497
0.978613
0.978794
0.979045
0.979365
0.979738
0.980152
0.980571
0.980984
0.981321
0.981603
0.981742
0.981952
0.982113
0.981879
0.981735
0.981438
0.981077
0.98063
0.980172
0.979717
0.979299
0.978932
0.978634
0.97841
0.978259
0.97817
0.97813
0.97813
0.97817
0.978259
0.97841
0.978634
0.978932
0.979299
0.979717
0.980172
0.98063
0.981077
0.981439
0.981736
0.98188
0.982114
0.982302
0.98204
0.981889
0.981576
0.981188
0.980705
0.980206
0.979706
0.97924
0.978823
0.978475
0.978206
0.978017
0.977901
0.977847
0.977847
0.977901
0.978017
0.978206
0.978475
0.978823
0.97924
0.979706
0.980207
0.980705
0.981188
0.981577
0.981891
0.982041
0.982303
0.98252
0.982226
0.982067
0.981735
0.981318
0.980796
0.980255
0.979707
0.979191
0.97872
0.97832
0.978003
0.977774
0.977628
0.97756
0.97756
0.977628
0.977774
0.978002
0.97832
0.97872
0.979191
0.979708
0.980255
0.980796
0.981319
0.981736
0.982068
0.982227
0.982522
0.982768
0.982437
0.982269
0.981916
0.981467
0.980904
0.980318
0.97972
0.97915
0.978624
0.978169
0.977802
0.977531
0.977354
0.977268
0.977268
0.977354
0.97753
0.977802
0.978169
0.978624
0.97915
0.979721
0.980318
0.980905
0.981468
0.981917
0.98227
0.982438
0.98277
0.983045
0.982672
0.982493
0.982119
0.981636
0.981028
0.980393
0.979744
0.979117
0.978533
0.978022
0.977603
0.977286
0.977076
0.976971
0.976971
0.977076
0.977286
0.977603
0.978022
0.978533
0.979118
0.979744
0.980394
0.981029
0.981637
0.98212
0.982495
0.982673
0.983046
0.983347
0.982929
0.982739
0.982341
0.98182
0.981165
0.980479
0.979773
0.979088
0.978445
0.977876
0.977401
0.977037
0.97679
0.976665
0.976665
0.97679
0.977037
0.977401
0.977875
0.978445
0.979089
0.979774
0.980479
0.981166
0.981821
0.982342
0.982741
0.98293
0.983349
0.983673
0.983206
0.983004
0.98258
0.982019
0.981312
0.98057
0.979804
0.979058
0.978351
0.977722
0.977191
0.976777
0.976491
0.976344
0.976344
0.976491
0.976777
0.977191
0.977722
0.978352
0.979058
0.979805
0.98057
0.981313
0.98202
0.982582
0.983005
0.983207
0.983675
0.984022
0.983501
0.983287
0.982836
0.98223
0.981466
0.980662
0.979832
0.979019
0.978247
0.977556
0.976966
0.976499
0.976172
0.976004
0.976003
0.976172
0.976499
0.976966
0.977556
0.978247
0.979019
0.979832
0.980663
0.981467
0.982231
0.982837
0.983288
0.983503
0.984024
0.984395
0.983816
0.983588
0.983107
0.982451
0.981625
0.980753
0.979852
0.978967
0.978126
0.977368
0.976717
0.976197
0.975829
0.975638
0.975638
0.975829
0.976197
0.976717
0.977368
0.978126
0.978967
0.979852
0.980754
0.981626
0.982452
0.983108
0.983589
0.983818
0.984397
0.984796
0.984156
0.983911
0.983395
0.982685
0.981789
0.980842
0.979862
0.978898
0.977982
0.977155
0.976441
0.975866
0.975456
0.975243
0.975243
0.975457
0.975866
0.976441
0.977155
0.977982
0.978898
0.979862
0.980843
0.98179
0.982686
0.983396
0.983912
0.984157
0.984797
0.985232
0.984526
0.984261
0.983705
0.982932
0.981961
0.98093
0.979862
0.978812
0.977814
0.976912
0.976132
0.975502
0.975052
0.974818
0.974818
0.975052
0.975502
0.976132
0.976912
0.977814
0.978812
0.979862
0.980931
0.981961
0.982933
0.983706
0.984262
0.984528
0.985233
0.985712
0.984936
0.984645
0.984041
0.983199
0.982142
0.981019
0.979854
0.978708
0.977621
0.976639
0.97579
0.975103
0.974614
0.974359
0.974359
0.974614
0.975104
0.97579
0.97664
0.977621
0.978709
0.979854
0.981019
0.982143
0.9832
0.984042
0.984647
0.984937
0.985713
0.986243
0.985394
0.985072
0.98441
0.983489
0.982338
0.981112
0.97984
0.97859
0.977406
0.976337
0.975413
0.974669
0.97414
0.973865
0.973865
0.97414
0.974669
0.975413
0.976337
0.977406
0.97859
0.97984
0.981112
0.982339
0.98349
0.984412
0.985074
0.985395
0.986245
0.986834
0.985908
0.985549
0.984821
0.983809
0.982553
0.981212
0.979823
0.978459
0.977169
0.976005
0.975001
0.974196
0.973627
0.973332
0.973332
0.973627
0.974196
0.975001
0.976005
0.977169
0.97846
0.979824
0.981213
0.982553
0.98381
0.984822
0.98555
0.985909
0.986835
0.987491
0.986484
0.986084
0.985279
0.984165
0.98279
0.981324
0.979807
0.978319
0.976912
0.975643
0.974552
0.97368
0.973069
0.972754
0.972754
0.973069
0.973681
0.974552
0.975644
0.976912
0.978319
0.979808
0.981325
0.982791
0.984166
0.98528
0.986085
0.986484
0.987491
0.98822
0.98713
0.986685
0.985794
0.984562
0.983055
0.981451
0.979794
0.978169
0.976634
0.975251
0.974063
0.973118
0.972459
0.972122
0.972122
0.972459
0.973118
0.974064
0.975251
0.976634
0.978169
0.979795
0.981451
0.983055
0.984563
0.985795
0.986685
0.987131
0.988221
0.989032
0.987856
0.987363
0.986377
0.985011
0.983353
0.981596
0.979786
0.978011
0.976334
0.974824
0.97353
0.972503
0.97179
0.971427
0.971427
0.971791
0.972503
0.97353
0.974825
0.976335
0.978011
0.979787
0.981596
0.983353
0.985011
0.986378
0.987363
0.987857
0.989033
0.989929
0.988666
0.988127
0.987041
0.985523
0.983694
0.981765
0.979784
0.977842
0.97601
0.97436
0.972948
0.971829
0.971054
0.97066
0.97066
0.971055
0.97183
0.972948
0.974361
0.97601
0.977843
0.979785
0.981765
0.983694
0.985523
0.987041
0.988127
0.988667
0.98993
0.990914
0.989562
0.98898
0.987791
0.986108
0.984087
0.981963
0.979791
0.977664
0.975659
0.973854
0.972312
0.971092
0.970246
0.969814
0.969814
0.970246
0.971092
0.972313
0.973855
0.975659
0.977665
0.979792
0.981963
0.984087
0.986108
0.987791
0.98898
0.989562
0.990914
0.992009
0.990564
0.989939
0.988643
0.986778
0.984542
0.982199
0.979811
0.977476
0.975279
0.973305
0.97162
0.970287
0.96936
0.968885
0.968885
0.969361
0.970288
0.971621
0.973305
0.975279
0.977477
0.979811
0.982199
0.984542
0.986778
0.988643
0.989939
0.990564
0.992009
0.993272
0.991725
0.991053
0.989636
0.987557
0.985071
0.982477
0.979847
0.977282
0.974871
0.97271
0.970869
0.969413
0.968397
0.967873
0.967873
0.968397
0.969414
0.97087
0.972711
0.974872
0.977282
0.979848
0.982477
0.985071
0.987557
0.989636
0.991053
0.991725
0.993272
0.994758
0.993101
0.992384
0.990833
0.988493
0.985698
0.982809
0.979904
0.977083
0.974437
0.972069
0.970058
0.968468
0.967356
0.96678
0.966781
0.967357
0.968469
0.970059
0.97207
0.974438
0.977083
0.979904
0.982809
0.985698
0.988492
0.990833
0.992384
0.993101
0.994757
0.996438
0.994674
0.993935
0.99226
0.989631
0.986467
0.983215
0.979987
0.97688
0.973977
0.971382
0.969184
0.96745
0.966238
0.96561
0.96561
0.966239
0.967451
0.969185
0.971383
0.973978
0.97688
0.979987
0.983214
0.986466
0.989631
0.992259
0.993935
0.994673
0.996438
0.998278
0.996404
0.995665
0.993885
0.990978
0.98741
0.983727
0.98011
0.976673
0.973488
0.970647
0.968244
0.966356
0.965041
0.964361
0.964361
0.965042
0.966357
0.968245
0.970647
0.973489
0.976674
0.98011
0.983727
0.987409
0.990977
0.993884
0.995664
0.996403
0.998277
1.0005
0.998482
0.997686
0.995751
0.992522
0.988524
0.984369
0.980295
0.976469
0.972967
0.969858
0.967234
0.96518
0.963759
0.963028
0.963028
0.96376
0.965181
0.967235
0.969859
0.972967
0.976469
0.980295
0.984369
0.988524
0.992522
0.99575
0.997685
0.998481
1.0005
1.00394
1.00168
1.00062
0.998287
0.994428
0.989818
0.985131
0.980552
0.976275
0.972409
0.96901
0.966151
0.963919
0.962386
0.961604
0.961605
0.962387