# vtk DataFile Version 3.0
Grid data
ASCII
DATASET STRUCTURED_POINTS
DIMENSIONS 16 128 1
ORIGIN 0 0 0
SPACING 0.015625 0.0078125 1
POINT_DATA 2048
SCALARS rho double
LOOKUP_TABLE default
0.995839
0.99584
0.995853
0.995852
0.995689
0.995355
0.995355
0.995482
0.995637
0.995819
0.996135
0.997538
0.997649
0.997602
0.996696
0.996391
0.98888
0.988895
0.988964
0.989062
0.988725
0.987783
0.987739
0.987801
0.987847
0.988202
0.988934
0.989231
0.989095
0.988944
0.989473
0.989547
0.978582
0.978647
0.978836
0.979323
0.979552
0.979087
0.979569
0.979687
0.979497
0.979267
0.979653
0.979148
0.978515
0.977974
0.977977
0.977968
0.971054
0.971166
0.971391
0.97214
0.973156
0.977487
0.978445
0.978572
0.978388
0.978008
0.976273
0.972326
0.97139
0.970809
0.970715
0.970709
0.969967
0.970076
0.970247
0.97104
0.972324
0.972893
0.973417
0.973507
0.973217
0.972859
0.971678
0.971528
0.970499
0.969818
0.969626
0.969587
0.966514
0.966638
0.966809
0.967428
0.968076
0.967817
0.967977
0.968083
0.967913
0.967511
0.967162
0.967594
0.967279
0.966764
0.966539
0.966492
0.96311
0.963185
0.963395
0.963849
0.964198
0.964052
0.964275
0.964606
0.964719
0.96435
0.964114
0.964425
0.964341
0.963998
0.963824
0.963767
0.961919
0.961944
0.962119
0.962475
0.96249
0.963144
0.963535
0.963939
0.963965
0.963573
0.963268
0.963235
0.963161
0.96281
0.962502
0.962449
0.962315
0.962328
0.962426
0.962515
0.962461
0.962951
0.963689
0.964206
0.964197
0.963801
0.963465
0.963434
0.963028
0.962657
0.962492
0.96244
0.962462
0.962452
0.962531
0.962619
0.962795
0.963293
0.963878
0.964288
0.964246
0.963873
0.963484
0.963388
0.962935
0.96253
0.962331
0.962294
0.963169
0.963149
0.963166
0.963259
0.963615
0.964055
0.964424
0.964636
0.964621
0.964282
0.963805
0.963588
0.963146
0.962763
0.962571
0.962511
0.964134
0.964115
0.96415
0.964115
0.963974
0.964185
0.964654
0.964985
0.964951
0.964603
0.964128
0.963683
0.963367
0.963208
0.963097
0.96306
0.964485
0.964485
0.964574
0.964683
0.964656
0.964833
0.965121
0.965275
0.965185
0.96485
0.964434
0.964032
0.963785
0.963684
0.96363
0.963627
0.96446
0.964461
0.964577
0.964835
0.965161
0.965385
0.96553
0.965497
0.965244
0.964921
0.964618
0.964413
0.964225
0.964077
0.964035
0.964057
0.964639
0.964654
0.964786
0.965081
0.965448
0.965727
0.965833
0.965773
0.965576
0.96533
0.965074
0.964907
0.964695
0.964533
0.964495
0.964529
0.964947
0.964962
0.965066
0.965251
0.965516
0.965786
0.96596
0.965961
0.965853
0.96569
0.965509
0.96535
0.965155
0.965001
0.964953
0.964971
0.965264
0.965263
0.965309
0.965394
0.965529
0.965689
0.965838
0.965907
0.965908
0.965858
0.965771
0.965655
0.965496
0.965369
0.965308
0.965307
0.965479
0.965453
0.965443
0.965435
0.965436
0.965454
0.9655
0.965563
0.965629
0.96568
0.965708
0.965702
0.965651
0.965578
0.965529
0.965527
0.965506
0.965469
0.965444
0.965404
0.965346
0.965273
0.965217
0.96521
0.965246
0.965325
0.965434
0.96553
0.96557
0.965551
0.965504
0.965498
0.965439
0.965406
0.965415
0.965387
0.965319
0.96522
0.965109
0.965051
0.965044
0.965079
0.965183
0.9653
0.965354
0.965329
0.965261
0.965248
0.965404
0.965379
0.965416
0.965435
0.965374
0.965319
0.965185
0.965064
0.965011
0.965025
0.965074
0.965134
0.965149
0.965114
0.965033
0.96502
0.965474
0.965449
0.965467
0.965475
0.965411
0.965387
0.965237
0.965073
0.964985
0.964997
0.965021
0.965009
0.965077
0.965106
0.965081
0.965084
0.965511
0.965464
0.965421
0.965342
0.965227
0.965205
0.965037
0.96491
0.96482
0.96483
0.964899
0.964933
0.965077
0.965302
0.965464
0.965528
0.965358
0.965291
0.965191
0.965026
0.964821
0.964776
0.964611
0.964543
0.964487
0.964493
0.964627
0.96476
0.965068
0.965473
0.965832
0.965987
0.965153
0.965066
0.964947
0.964762
0.964542
0.964467
0.964358
0.964364
0.964332
0.964318
0.964464
0.964688
0.965041
0.965415
0.965784
0.96598
0.965323
0.965217
0.965062
0.964882
0.964708
0.964651
0.964634
0.964678
0.964671
0.96462
0.964665
0.964858
0.965086
0.965323
0.965574
0.965744
0.966219
0.966073
0.965786
0.965474
0.965262
0.96524
0.965236
0.965238
0.965234
0.965204
0.965177
0.965216
0.965366
0.965621
0.965794
0.965915
0.967505
0.967339
0.96695
0.966382
0.965959
0.965942
0.965775
0.965663
0.965638
0.96568
0.965759
0.965713
0.966041
0.966617
0.967071
0.967268
0.968446
0.968246
0.967754
0.967059
0.966541
0.966466
0.966223
0.966087
0.966083
0.966186
0.966337
0.966242
0.966855
0.967818
0.968612
0.968968
0.968603
0.968435
0.967996
0.967402
0.96695
0.966729
0.96656
0.966547
0.966564
0.966609
0.966886
0.967321
0.967934
0.968466
0.969105
0.969503
0.970441
0.970045
0.969691
0.969222
0.968705
0.968526
0.968106
0.968068
0.968114
0.968198
0.968551
0.968826
0.96923
0.969637
0.969731
0.970047
0.973767
0.973352
0.972772
0.972111
0.971471
0.97132
0.970861
0.970636
0.970581
0.970694
0.97094
0.971162
0.971517
0.971666
0.971847
0.97209
0.976885
0.976499
0.975762
0.974972
0.974297
0.974201
0.973802
0.973497
0.973394
0.973429
0.973486
0.973739
0.974146
0.974322
0.974491
0.974715
0.977048
0.976576
0.975916
0.975569
0.975402
0.975281
0.974862
0.974767
0.974591
0.974498
0.974843
0.975168
0.975889
0.976771
0.977318
0.97778
0.980251
0.979692
0.97911
0.978893
0.978833
0.978834
0.978437
0.978217
0.978039
0.977891
0.97806
0.978215
0.978891
0.980109
0.980702
0.981288
0.983899
0.983217
0.982373
0.98176
0.981404
0.981661
0.981636
0.981365
0.981087
0.98109
0.981239
0.981322
0.981344
0.98156
0.982017
0.982537
0.987478
0.98655
0.985535
0.984977
0.984581
0.984856
0.984703
0.98441
0.984307
0.984413
0.984516
0.984414
0.984834
0.984967
0.98525
0.985853
0.988026
0.987144
0.986523
0.98564
0.986003
0.986479
0.986206
0.985852
0.98606
0.986112
0.986198
0.985847
0.985756
0.98714
0.9883
0.989202
0.994037
0.992497
0.990011
0.988006
0.987374
0.987669
0.987242
0.987031
0.987314
0.987645
0.988009
0.98784
0.988727
0.991568
0.994193
0.995675
1.00446
1.00212
0.996505
0.988791
0.987642
0.988228
0.988934
0.988629
0.987903
0.988196
0.988934
0.988691
0.990664
0.993884
0.997755
0.999897
1.00946
1.00677
1.00073
0.992073
0.989532
0.989879
0.989259
0.988539
0.988682
0.989268
0.989737
0.989719
0.993277
0.999443
1.00141
1.00388
1.03164
1.02756
1.01583
1.00092
0.992154
0.99054
0.986882
0.985197
0.986808
0.988425
0.989359
0.990099
0.995209
1.00633
1.01779
1.02187
1.07353
1.068
1.04431
1.01276
0.995568
0.99214
0.9855
0.982428
0.981683
0.984766
0.990432
0.992721
1.00473
1.02543
1.0458
1.052
1.10493
1.09652
1.06188
1.01984
0.99808
0.992375
0.982979
0.977128
0.976583
0.982096
0.992663
0.999607
1.02217
1.0539
1.0629
1.07119
1.22406
1.20657
1.13497
1.05265
1.01
0.999241
0.984039
0.976653
0.977527
0.984813
0.995602
1.00276
1.03063
1.08011
1.13641
1.15115
1.4111
1.38372
1.26433
1.11813
1.0308
1.00787
0.983575
0.972556
0.973923
0.984836
1.00318
1.0173
1.07333
1.17173
1.27164
1.29554
1.54154
1.49608
1.3389
1.15498
1.04118
1.01058
0.984542
0.971551
0.971272
0.985248
1.01189
1.04005
1.15019
1.30434
1.38018
1.41876
1.85149
1.79224
1.57994
1.2955
1.08924
1.02748
0.98364
0.969886
0.969262
0.985056
1.01383
1.04955
1.1885
1.44224
1.68593
1.76126
2.04925
2.00007
1.79378
1.44629
1.15325
1.04713
0.978404
0.962078
0.963705
0.981507
1.03161
1.10173
1.33643
1.70315
1.98777
2.07898
2.07515
2.03076
1.83748
1.47672
1.16592
1.05433
0.97817
0.958043
0.957361
0.979845
1.06167
1.18107
1.50991
1.95292
2.15444
2.19538
2.18404
2.15646
2.00241
1.60919
1.23901
1.10171
0.994624
0.961077
0.957123
0.986298
1.06466
1.23446
1.64748
2.07749
2.20744
2.21476
2.21119
2.18961
2.06224
1.67558
1.29843
1.15336
1.00943
0.962767
0.951969
0.995961
1.08989
1.35022
1.76611
2.11319
2.22377
2.24033
2.22417
2.20325
2.07288
1.68637
1.3028
1.15439
1.00816
0.962309
0.94127
0.994259
1.1159
1.43531
1.8297
2.13981
2.22376
2.23375
2.2026
2.18499
2.06909
1.70969
1.33035
1.18104
1.0158
0.963705
0.935751
0.995611
1.11737
1.44066
1.83853
2.13121
2.21436
2.22459
2.17394
2.15182
2.03023
1.71059
1.35653
1.20567
1.02873
0.970871
0.936462
1.007
1.14079
1.47685
1.85954
2.1159
2.18798
2.19814
2.14627
2.11016
1.96279
1.68388
1.36419
1.21032
1.03523
0.977057
0.934644
1.01142
1.1761
1.51321
1.86634
2.08414
2.14908
2.15997
2.1205
2.07038
1.90135
1.64253
1.35286
1.20752
1.03174
0.975168
0.929008
1.00516
1.20891
1.53218
1.84384
2.04171
2.12401
2.13924
2.09463
2.03767
1.84923
1.59467
1.33007
1.20647
1.03043
0.974686
0.924899
1.00682
1.22368
1.52196
1.7968
1.98426
2.07321
2.09248
2.07968
2.01826
1.80762
1.54217
1.2995
1.20734
1.03752
0.973229
0.920617
1.00658
1.221
1.49402
1.74316
1.93149
2.03296
2.05997
2.05806
1.99203
1.76908
1.49657
1.2697
1.20203
1.04924
0.972951
0.918349
1.00837
1.21117
1.46543
1.70239
1.8928
2.0246
2.05272
2.04849
1.97793
1.74049
1.46142
1.2455
1.18406
1.05676
0.969428
0.918025
1.00775
1.20751
1.46149
1.69796
1.86096
1.98356
2.01701
2.02921
1.95875
1.71821
1.43741
1.22744
1.16963
1.05361
0.961109
0.914206
1.00308
1.19627
1.43608
1.655
1.81339
1.94705
1.98129
2.01035
1.93734
1.70595
1.43509
1.22514
1.16591
1.0485
0.95392
0.909142
0.997026
1.18322
1.40374
1.60111
1.76619
1.91398
1.96021
1.99735
1.91906
1.67821
1.41255
1.21558
1.16148
1.04689
0.950625
0.90851
0.991389
1.16741
1.37197
1.54298
1.7202
1.87889
1.92913
1.98562
1.9078
1.66921
1.4046
1.20535
1.15095
1.04335
0.950723
0.909656
0.986798
1.14985
1.34315
1.49078
1.67519
1.84552
1.90306
1.97424
1.88911
1.63765
1.37634
1.18859
1.13804
1.0364
0.948864
0.906792
0.978991
1.13617
1.3232
1.48607
1.64255
1.81597
1.88799
1.97074
1.88043
1.61272
1.35055
1.17959
1.13656
1.03238
0.944517
0.901635
0.975774
1.13613
1.32366
1.40258
1.57908
1.79253
1.87423
1.96238
1.86859
1.59716
1.32769
1.16177
1.12081
1.02518
0.938715
0.895355
0.966749
1.12173
1.28744
1.33837
1.53686
1.78012
1.86891
1.95847
1.86265
1.58111
1.30689
1.14325
1.10301
1.01698
0.936419
0.890925
0.957112
1.09826
1.24361
1.29937
1.52988
1.77187
1.86283
1.95296
1.85065
1.57065
1.3053
1.14138
1.10074
1.00929
0.930956
0.885484
0.953382
1.0964
1.23987
1.29438
1.49802
1.75881
1.86421
1.95179
1.84212
1.54699
1.27801
1.12571
1.08919
1.0084
0.929465
0.883169
0.94443
1.07271
1.19942
1.25523
1.47051
1.75408
1.86547
1.95179
1.8387
1.52712
1.24769
1.10273
1.06919
0.997234
0.924061
0.883796
0.932917
1.03905
1.14815
1.21448
1.45226
1.75404
1.86958
1.95068
1.83007
1.52366
1.2453
1.07965
1.04755
0.980274
0.915377
0.880812
0.924375
1.02796
1.14064
1.20962
1.44884
1.75001
1.86971
1.95278
1.82153
1.48906
1.20901
1.0771
1.04556
0.973055
0.907037
0.877532
0.909044
0.994138
1.09813
1.17095
1.41919
1.74397
1.87348
1.95703
1.81893
1.46228
1.17108
1.05639
1.03122
0.96481
0.904116
0.875253
0.893666
0.964199
1.05724
1.13591
1.39973
1.74084
1.87359
1.9616
1.81921
1.45
1.14602
1.03157
1.00847
0.954522
0.901573
0.872097
0.885283
0.953728
1.0489
1.12999
1.39772
1.74252
1.88007
1.96568
1.8189
1.44799
1.14385
1.02815
1.0031
0.943644
0.893967
0.867821
0.878224
0.94133
1.0298
1.10992
1.38286
1.73942
1.88189
1.97408
1.81815
1.42865
1.1194
1.00988
0.985845
0.931462
0.886222
0.864271
0.874217
0.929561
1.01059
1.09044
1.37136
1.73603
1.8812
1.98362
1.82152
1.4155
1.09557
0.99198
0.968745
0.92133
0.882357
0.863669
0.873721
0.919344
0.99908
1.08883
1.37009
1.73621
1.88683
1.99523
1.8274
1.41374
1.09206
0.989059
0.965863
0.918253
0.881833
0.868302
0.880923
0.910771
0.98181
1.06993
1.35305
1.73406
1.89359
2.00958
1.83321
1.40557
1.07681
0.979336
0.956996
0.912383
0.882095
0.875264
0.889987
0.907686
0.965284
1.04793
1.33903
1.74137
1.91274
2.02618
1.84331
1.4009
1.06293
0.970279
0.949622
0.906491
0.879396
0.877953
0.893684
0.904971
0.948457
1.02695
1.33005
1.75422
1.93623
2.04368
1.85433
1.40142
1.06103
0.968394
0.946853
0.904096
0.877921
0.877853
0.891614
0.898268
0.934905
1.01059
1.32633
1.77024
1.96046
2.06157
1.86575
1.39958
1.0526
0.964034
0.94421
0.902718
0.875349
0.874025
0.88573
0.895264
0.919741
0.999942
1.32809
1.78838
1.9851
2.08052
1.87985
1.39851
1.04302
0.957917
0.938782
0.899163
0.87228
0.868612
0.876753
0.891842
0.91447
0.997248
1.33565
1.80991
2.01219
2.09878
1.89481
1.40074
1.03253
0.951354
0.93167
0.897102
0.872186
0.862695
0.8684
0.883727
0.907587
0.998498
1.34958
1.83583
2.04298
2.11796
1.91129
1.40576
1.02574
0.944867
0.923766
0.890462
0.865134
0.855669
0.861325
0.872358
0.899915
1.00068
1.36704
1.86711
2.07801
2.13636
1.9289
1.4131
1.02575
0.928461
0.903882
0.88173
0.862111
0.849711
0.849513
0.859046
0.887037
0.99966
1.38829
1.90502
2.11565
2.15472
1.95048
1.4191
1.02159
0.901725
0.880928
0.877765
0.863795
0.850244
0.843692
0.846449
0.873778
1.00603
1.4123
1.95174
2.15275
2.17017
1.97648
1.43802
1.02033
0.877459
0.864535
0.863977
0.853805
0.8404
0.832666
0.835941
0.858244
1.04814
1.47657
2.00574
2.18331
2.18568
2.00321
1.47279
1.04138
0.859426
0.851866
0.851699
0.84436
0.833739
0.828081
0.832368
0.855914
1.10053
1.55265
2.05277
2.20515
2.19947
2.02833
1.51192
1.06912
0.84897
0.84965
0.84561
0.840719
0.831679
0.830712
0.837942
0.862691
1.13511
1.60459
2.07992
2.21581
2.22102
2.06411
1.54145
1.08202
0.843527
0.839309
0.838063
0.832897
0.828323
0.840294
0.857644
0.929904
1.26757
1.78412
2.1356
2.22451
2.23056
2.10649
1.64957
1.15152
0.857242
0.836433
0.830819
0.830269
0.830939
0.847701
0.9349
1.07479
1.45866
1.94476
2.17357
2.22101
2.22929
2.14059
1.79426
1.2721
0.911656
0.835082
0.823614
0.829876
0.838583
0.875494
1.03259
1.24275
1.6352
2.02243
2.18484
2.21401
2.2251
2.17019
1.91681
1.41257
1.00572
0.844995
0.821575
0.83294
0.851
0.922108
1.04498
1.38361
1.75365
2.04867
2.1941
2.21652
2.22055
2.192
1.99672
1.53012
1.10908
0.854932
0.819021
0.835829
0.855601
0.929977
1.12316
1.42043
1.77562
2.09454
2.21453
2.22352
2.22398
2.19744
2.00762
1.57119
1.15604
0.880625
0.814954
0.840162
0.868099
0.985276
1.26109
1.57367
1.88818
2.1388
2.22481
2.22726
2.23121
2.22348
2.08838
1.73797
1.33514
0.986361
0.820572
0.855921
0.930729
1.14818
1.43924
1.71857
1.9789
2.16656
2.22716
2.22728
2.23603
2.23361
2.146
1.89034
1.54814
1.16103
0.94452
0.964449
1.14705
1.4123
1.49387
1.74244
1.98432
2.16893
2.23041
2.2298
2.23703
2.23438
2.14969
1.90709
1.60498
1.38259
1.19477
1.18374
1.40662
1.64114
1.69142
1.86423
2.04357
2.18315
2.23214
2.23078
2.23665
2.23615
2.17861
2.00374
1.79674
1.63891
1.51014
1.46897
1.51617
1.67825
1.85848
1.97812
2.09458
2.19439
2.23288
2.23083
2.23753
2.23847
2.20211
2.09863
1.97543
1.87077
1.81597
1.77046
1.75333
1.81849
1.87473
1.98155
2.09837
2.19597
2.23226
2.22988
2.23696
2.23806
2.20816
2.13844
2.0599
1.99759
1.95999
1.92745
1.91349
1.9487
1.95935
2.03221
2.12402
2.20175
2.23242
2.22922
2.23696
2.23897
2.21244
2.14396
2.06648
2.00095
1.96556
1.93657
1.92425
1.95569
2.02277
2.08598
2.15203
2.20631
2.23314
2.22854
2.23493
2.23897
2.21192
2.15933
2.09877
2.04715
2.01692
1.9981
1.99246
2.01538
2.06789
2.12043
2.16961
2.20831
2.22959
2.22581
2.23326
2.23658
2.21287
2.17131
2.12456
2.08485
2.05891
2.04619
2.0468
2.06454
2.09613
2.13424
2.17318
2.20733
2.2262
2.22278
2.22983
2.23297
2.21178
2.17244
2.12743
2.08886
2.06323
2.05222
2.05315
2.0694
2.09865
2.13427
2.17312
2.20605
2.22395
2.22086
2.22704
2.22993
2.21197
2.17875
2.14006
2.10622
2.08238
2.07261
2.07578
2.09141
2.11083
2.14123
2.17642
2.20676
2.22353
2.22054
2.22643
2.22904
2.21423
2.1874
2.15595
2.12779
2.10742
2.0998
2.10342
2.11598
2.12689
2.15215
2.18223
2.20819
2.22243
2.21982
2.2247
2.22691
2.2157
2.19376
2.16797
2.14479
2.12833
2.12254
2.12298
2.11931
2.14057
2.16245
2.18738
2.20915
2.22064
2.21842
2.22356
2.22558
2.21575
2.19417
2.16869
2.14569
2.12977
2.12491
2.12469
2.13262
2.14225
2.16366
2.18857
2.20935
2.21935
2.21727
2.22445
2.22616
2.21791
2.2016
2.18115
2.16054
2.14487
2.13869
2.13971
2.14935
2.1586
2.177
2.19794
2.21476
2.22353
2.22168
2.2303
2.23175
2.22594
2.21441
2.19987
2.18207
2.16754
2.16042
2.16164
2.17002
2.18235
2.19757
2.21236
2.22567
2.23234
2.23073
2.24034
2.24208
2.23912
2.23122
2.21833
2.20198
2.18918
2.18246
2.18385
2.18991
2.20165
2.21624
2.23011
2.24043
2.24422
2.24259
2.25059
2.25299
2.25251
2.2476
2.22233
2.20654
2.19393
2.18722
2.1884
2.19491
2.20655
2.22036
2.24725
2.25374
2.25491
2.2523
2.2529
2.25583
2.25717
2.25559
2.24857
2.23757
2.22639
2.21977
2.2205
2.22722
2.23771
2.24819
2.25634
2.25851
2.2579
2.25463
2.26916
2.27438
2.28462
2.28581
2.29074
2.28822
2.27977
2.27267
2.2731
2.28092
2.29059
2.29442
2.28879
2.28625
2.27673
2.27066
2.29247
2.29955
2.32143
2.32534
2.3382
2.34457
2.33787
2.3291
2.32925
2.33937
2.34913
2.34635
2.33283
2.32379
2.30348
2.29478
2.31449
2.32318
2.33354
2.33859
2.36083
2.3677
2.35851
2.34779
2.34789
2.35995
2.37189
2.36834
2.34548
2.33758
2.33073
2.31934
2.32371
2.34081
2.392
2.4067
2.46239
2.47215
2.45613
2.43958
2.43943
2.45694
2.47532
2.4692
2.4143
2.40305
2.34749
2.33142
2.37098
2.38758
2.4166
2.50785
2.59298
2.59173
2.56376
2.54085
2.54047
2.56243
2.5904
2.59445
2.51751
2.43282
2.40543
2.38875
2.44186
2.45332
2.52261
2.63507
2.65136
2.63429
2.59122
2.55988
2.55968
2.58995
2.63195
2.65449
2.64867
2.55256
2.49986
2.48491
2.4672
2.4893
2.64633
2.7914
2.83655
2.79429
2.71019
2.65273
2.65331
2.70989
2.7924
2.83561
2.80297
2.67625
2.53571
2.51809
2.58106
2.59609
2.77177
2.93548
3.01577
2.94434
2.82738
2.75828
2.75844
2.82807
2.94144
3.00112
2.936
2.79414
2.67206
2.65365
2.67213
2.67945
2.81853
2.97765
3.03369
2.99035
2.90669
2.84581
2.84589
2.90572
2.9814
3.01404
2.96689
2.85675
2.75955
2.74754
2.66706
2.74878
2.74087
2.75104
2.73052
2.73778
2.74215
2.71113
2.70913
2.73629
2.7225
2.7044
2.71743
2.72024
2.68932
2.66661
2.40332
2.296
2.08222
1.88214
1.79239
1.81709
1.90114
1.97695
1.97173
1.88839
1.80284
1.77237
1.83118
1.9781
2.10103
2.15031
SCALARS u double
LOOKUP_TABLE default
-1.00972e-05
-2.38468e-05
-2.6202e-05
-3.53785e-05
-6.69626e-05
-0.000133098
-0.00019019
-0.000219968
-0.000360046
-0.00030419
-0.000114351
6.24866e-06
9.43618e-05
0.000132927
8.81778e-05
1.49018e-05
-1.55534e-05
-6.78749e-05
-0.000103077
-0.000163915
-0.00024322
-0.000318233
-0.000346401
-0.00028044
-6.41325e-05
7.97276e-05
9.90321e-05
0.000141923
0.000224589
0.000203051
0.000107656
1.96416e-05
-2.31443e-05
-0.000138987
-0.000267087
-0.000403198
-0.000488468
-0.000486351
-0.000401285
-0.000225062
3.77541e-05
0.00032427
0.000482601
0.00049561
0.000413511
0.000329026
0.000250426
5.39047e-05
-2.5486e-05
-0.000163716
-0.000298347
-0.000445319
-0.000534588
-0.0005474
-0.000430737
-0.000187054
8.86762e-05
0.00032947
0.000478251
0.000485075
0.000424935
0.000329938
0.000211783
4.64789e-05
-3.74316e-05
-0.000314787
-0.000520557
-0.000635564
-0.000661013
-0.000585348
-0.000376591
-5.76633e-05
0.000314114
0.000617798
0.000672623
0.000589996
0.000488904
0.000320712
0.00016372
3.17776e-05
-3.83183e-05
-0.000301918
-0.000506814
-0.000622525
-0.00063653
-0.000548025
-0.000328579
-2.87698e-05
0.000369103
0.000579956
0.000590105
0.000486013
0.000370564
0.000238229
0.000120088
2.35207e-05
-3.81575e-05
-0.000220125
-0.000372065
-0.000545168
-0.000564451
-0.000402327
-0.000164256
0.000107644
0.000284082
0.000349602
0.000450619
0.000452222
0.000345603
0.000159144
7.98258e-05
1.7431e-05
-4.36744e-05
-0.000204317
-0.000304386
-0.000409135
-0.000430173
-0.000379769
-0.000168303
3.82356e-05
0.000189346
0.000256442
0.000291073
0.000314106
0.000241039
0.000137149
7.42862e-05
1.54929e-05
-4.44803e-05
-0.000179809
-0.000227984
-0.000298368
-0.000303765
-0.000254247
-0.00018025
-0.000113685
-2.65062e-05
0.000103811
0.00019562
0.000207876
0.000174173
0.000130179
8.00837e-05
1.75504e-05
-3.52334e-05
-0.000124738
-0.000141879
-0.000139581
-0.000129298
-0.000149531
-0.000169126
-0.000182922
-0.000166442
-6.62558e-05
5.57778e-05
0.000123294
0.000173856
0.000154349
0.000107131
2.05058e-05
-1.89759e-05
-2.52703e-05
-3.49636e-06
8.60226e-07
3.6854e-06
2.25483e-06
-6.24813e-05
-0.000167829
-0.000234062
-0.000167717
-6.34953e-05
3.36713e-05
0.000120603
0.000152622
0.000116806
1.97787e-05
1.50629e-06
7.55822e-05
0.00014645
0.000195072
0.000210224
0.000146249
2.1638e-05
-0.000106332
-0.00020224
-0.000209745
-0.00015582
-6.16475e-05
1.28689e-05
5.61514e-05
5.36101e-05
9.5584e-06
1.98818e-05
0.000160963
0.000268173
0.000352267
0.000394728
0.000350001
0.000204522
2.61116e-05
-0.000113167
-0.000186945
-0.000192371
-0.000171579
-0.000131729
-9.51516e-05
-5.44436e-05
-6.52906e-06
3.64336e-05
0.000216723
0.000346422
0.000463909
0.000529177
0.000504549
0.000366235
0.000176886
-3.72485e-06
-0.000158622
-0.000254634
-0.000285126
-0.000276448
-0.000251824
-0.000159912
-1.92282e-05
4.77204e-05
0.000241433
0.00038485
0.000519524
0.000589616
0.000580704
0.000468768
0.000289924
8.38132e-05
-0.00012234
-0.000285048
-0.000372189
-0.000386099
-0.000336827
-0.000199795
-2.55298e-05
5.44699e-05
0.000268359
0.000408158
0.000545622
0.000596368
0.000578778
0.000501402
0.000345886
0.000129235
-0.000100739
-0.000294254
-0.000410318
-0.000417332
-0.000331939
-0.000199379
-3.12907e-05
6.1889e-05
0.00029486
0.000457173
0.000575079
0.000602027
0.00056369
0.000477845
0.000329764
0.000121071
-9.76585e-05
-0.000274995
-0.000385791
-0.000395554
-0.000311595
-0.000184563
-3.50673e-05
7.04672e-05
0.000337842
0.000526831
0.000648633
0.00064053
0.000573603
0.000456515
0.000285695
9.43415e-05
-9.86884e-05
-0.000260408
-0.000364895
-0.000387167
-0.000306517
-0.000189339
-4.07228e-05
8.26293e-05
0.00041105
0.00063678
0.000756013
0.000719129
0.000611555
0.000468667
0.000285454
9.05995e-05
-0.00010963
-0.000279575
-0.000393561
-0.00042772
-0.000355287
-0.000235431
-5.17403e-05
9.80178e-05
0.000487725
0.000743116
0.000869245
0.000826375
0.0006955
0.000514567
0.000306177
0.000103059
-0.000117906
-0.000319419
-0.000462024
-0.000510507
-0.000443
-0.000304898
-6.47403e-05
0.000112091
0.000543364
0.000827152
0.000979092
0.000935364
0.000787263
0.000576076
0.000331491
0.00010918
-0.000126401
-0.000359596
-0.000522625
-0.000580973
-0.000508347
-0.000345589
-7.2385e-05
0.000121904
0.00058161
0.000908026
0.00110104
0.00104152
0.000872589
0.000669722
0.000383076
9.45897e-05
-0.000181592
-0.000410686
-0.000567073
-0.000642927
-0.000539319
-0.000351584
-7.34766e-05
0.000130732
0.00063084
0.000997121
0.0012467
0.00117382
0.000996582
0.000813242
0.000449555
7.36794e-05
-0.000273186
-0.000508367
-0.000658556
-0.000740268
-0.000623809
-0.00038249
-7.42033e-05
0.000144077
0.000711764
0.00115128
0.00147702
0.00137479
0.00119497
0.00101296
0.000547363
6.84698e-05
-0.000361866
-0.000595303
-0.00079894
-0.00098649
-0.000853942
-0.000517173
-8.86372e-05
0.000166929
0.00082585
0.00133409
0.0017219
0.00161615
0.00141065
0.00119311
0.000660516
7.66046e-05
-0.000491232
-0.000812222
-0.00109148
-0.0013104
-0.00115102
-0.000721633
-0.000120324
0.000200516
0.000986482
0.00153817
0.00176213
0.00167592
0.00144296
0.00120073
0.000688184
9.45457e-05
-0.000570282
-0.00101747
-0.00139426
-0.00161955
-0.00144564
-0.000956793
-0.000175248
0.000230294
0.00112009
0.00175041
0.00213445
0.00204363
0.00177049
0.00141108
0.00079604
8.91646e-05
-0.000707056
-0.00128769
-0.00171095
-0.00190308
-0.00169573
-0.001148
-0.000231795
0.000287261
0.00147584
0.00239334
0.00285805
0.00263039
0.00224173
0.00169463
0.00089193
3.76467e-05
-0.000851794
-0.0015581
-0.00207286
-0.00234232
-0.00214733
-0.0014371
-0.000294164
0.000409184
0.00201896
0.00307913
0.00357428
0.00328533
0.00270554
0.00207198
0.00101956
-8.19179e-05
-0.00118677
-0.00196821
-0.00262023
-0.00306965
-0.00269361
-0.00172798
-0.000318947
0.000538902
0.00253417
0.00331464
0.00396065
0.00342949
0.00282538
0.00232457
0.00111418
-0.00022546
-0.00153785
-0.0021675
-0.00307161
-0.0039824
-0.00362762
-0.00236504
-0.000439249
0.0005585
0.00274073
0.00430536
0.00503389
0.00450188
0.00367164
0.0028153
0.00124043
-0.000418174
-0.00207455
-0.00298895
-0.00403399
-0.00488542
-0.00434886
-0.00290192
-0.000586236
0.00071131
0.00357846
0.00574185
0.00672195
0.00607914
0.00488419
0.00344455
0.00138795
-0.000651635
-0.00271182
-0.00416509
-0.00530376
-0.00588003
-0.00516986
-0.00345046
-0.000733166
0.000922716
0.00434385
0.00681341
0.00813488
0.00744893
0.0060481
0.00427075
0.00171134
-0.000890648
-0.0034711
-0.00521178
-0.00659932
-0.00708335
-0.00615601
-0.00410377
-0.000880208
0.000966072
0.00450813
0.00705284
0.00833406
0.00767096
0.00625856
0.00477457
0.00195319
-0.000954441
-0.0036407
-0.00540872
-0.00696632
-0.00806354
-0.00687492
-0.00440128
-0.000922047
0.00129778
0.00595359
0.00917588
0.0106799
0.00990015
0.00812856
0.00598116
0.00250767
-0.001165
-0.00467684
-0.00709631
-0.00916798
-0.0104126
-0.00899213
-0.00583763
-0.00120897
0.00171225
0.00792362
0.0121596
0.0139568
0.0129606
0.0105915
0.00749758
0.00322579
-0.0013507
-0.00583298
-0.00920084
-0.0117627
-0.0130838
-0.0116746
-0.00773657
-0.00162552
0.00210418
0.00963451
0.0148451
0.0168808
0.0155707
0.0126626
0.00891546
0.0038934
-0.00151958
-0.00676875
-0.0108434
-0.0138938
-0.0152676
-0.0135538
-0.00907519
-0.00194583
0.00221089
0.0102141
0.0157682
0.0178691
0.0163115
0.0133357
0.00933252
0.00399302
-0.00165745
-0.0070524
-0.0112213
-0.0143618
-0.0159126
-0.0139228
-0.00913197
-0.00199111
0.0029946
0.0139476
0.0215178
0.024317
0.0221091
0.0179626
0.0123203
0.00499805
-0.00237434
-0.00916163
-0.0143244
-0.0182955
-0.020566
-0.0183133
-0.0119652
-0.00259642
0.00403299
0.019119
0.0298745
0.0336726
0.0300258
0.024131
0.0162348
0.00655716
-0.0033715
-0.0122324
-0.018989
-0.0240582
-0.0274408
-0.0249227
-0.0163589
-0.00354465
0.00496875
0.0235677
0.0369384
0.0415017
0.0363984
0.028966
0.0193166
0.00689836
-0.00455337
-0.0147295
-0.0227219
-0.0292941
-0.0337399
-0.0308902
-0.0202445
-0.00444114
0.00498431
0.0236549
0.0370663
0.0418834
0.0367216
0.0293807
0.019718
0.00772691
-0.00445056
-0.0157952
-0.024007
-0.0309211
-0.0358386
-0.0326186
-0.0211077
-0.00456954
0.00596061
0.0280409
0.0437138
0.0492304
0.0422675
0.0330971
0.0221459
0.00764633
-0.00770333
-0.0221016
-0.0328238
-0.0422661
-0.0493665
-0.044705
-0.0286577
-0.00603846
0.0067225
0.0311159
0.0482847
0.0546799
0.0466649
0.0361978
0.0244094
0.00748017
-0.0125435
-0.0321972
-0.0471671
-0.0588653
-0.0678409
-0.0596601
-0.0376936
-0.00774274
0.0080609
0.0374556
0.0592639
0.0675272
0.0577587
0.0443169
0.0294503
0.00785648
-0.0163629
-0.0402564
-0.0578054
-0.0721287
-0.0814539
-0.0693065
-0.0417857
-0.0086904
0.00887943
0.0417578
0.0686954
0.0797557
0.0706402
0.0552911
0.0349297
0.00942444
-0.0171272
-0.0418235
-0.0612626
-0.0731587
-0.0789246
-0.0651921
-0.0387207
-0.00810188
0.00856374
0.0408388
0.0679908
0.0801455
0.0709322
0.0553666
0.0352403
0.00972982
-0.0184826
-0.04651
-0.0656504
-0.0781027
-0.0872882
-0.0726449
-0.0460626
-0.00971078
0.00943774
0.0456179
0.0755496
0.0902361
0.0820798
0.0630584
0.0409077
0.0119951
-0.0188327
-0.0470415
-0.0687309
-0.0878875
-0.09878
-0.0832703
-0.0481923
-0.00973633
0.00975824
0.0479093
0.0797993
0.0959191
0.0915572
0.0730046
0.0495501
0.0160522
-0.0193835
-0.0520858
-0.0770029
-0.0949734
-0.0973727
-0.0814772
-0.047704
-0.00940348
0.00982999
0.049285
0.0834178
0.100147
0.0965578
0.0818633
0.0561634
0.018828
-0.0204222
-0.0572673
-0.0811048
-0.0968305
-0.0913923
-0.0758576
-0.0465688
-0.00931841
0.00986496
0.0489682
0.0780557
0.0910046
0.0888925
0.0807534
0.0566388
0.0190128
-0.0218196
-0.0587782
-0.0815087
-0.092782
-0.0854443
-0.07326
-0.044979
-0.00908799
0.00956476
0.0476593
0.0751595
0.085122
0.0837081
0.072104
0.053764
0.0186443
-0.0225255
-0.0596724
-0.0809309
-0.0879097
-0.0811952
-0.0710051
-0.0452973
-0.00908809
0.00870945
0.0444652
0.0704182
0.081209
0.0789884
0.0637115
0.0549321
0.0198382
-0.0211059