# vtk DataFile Version 3.0
Grid data
ASCII
DATASET STRUCTURED_POINTS
DIMENSIONS 16 128 1
ORIGIN 0 0 0
SPACING 0.015625 0.0078125 1
POINT_DATA 2048
SCALARS rho double
LOOKUP_TABLE default
0.986489
0.986539
0.986593
0.986609
0.986549
0.986623
0.986888
0.987124
0.987133
0.986887
0.986588
0.986537
0.986606
0.986582
0.986521
0.986506
0.981661
0.981826
0.982197
0.982426
0.98215
0.982195
0.982273
0.982393
0.982392
0.982272
0.98216
0.982129
0.982426
0.982183
0.981805
0.981658
0.975721
0.975982
0.976765
0.977603
0.978154
0.97896
0.979307
0.979389
0.97939
0.979302
0.978962
0.978141
0.977598
0.976763
0.975992
0.975747
0.971588
0.972011
0.973183
0.974516
0.977606
0.978694
0.979026
0.979057
0.979056
0.979018
0.978715
0.977592
0.974505
0.973188
0.97203
0.971617
0.971307
0.971731
0.972936
0.974341
0.975764
0.976913
0.977238
0.977223
0.977222
0.977238
0.976913
0.975747
0.974328
0.972942
0.971749
0.971335
0.969348
0.969944
0.971253
0.972686
0.973548
0.97436
0.974666
0.97482
0.97482
0.974669
0.974351
0.973531
0.972675
0.971259
0.969961
0.969361
0.967502
0.968041
0.96914
0.970535
0.971775
0.972431
0.972662
0.972905
0.972904
0.972662
0.972417
0.971765
0.970532
0.969148
0.968058
0.967517
0.967018
0.96756
0.968435
0.96962
0.970936
0.971628
0.972192
0.972457
0.972455
0.972192
0.971632
0.970942
0.969625
0.968445
0.967574
0.967038
0.967968
0.968396
0.969107
0.969944
0.970454
0.971128
0.971953
0.972355
0.972359
0.971957
0.97113
0.970468
0.969939
0.969107
0.968402
0.96797
0.969657
0.970053
0.970521
0.970931
0.971149
0.971405
0.972074
0.972512
0.972516
0.972069
0.971414
0.97121
0.970931
0.970512
0.970049
0.969644
0.971188
0.971335
0.971347
0.971705
0.972109
0.972109
0.972514
0.973023
0.973023
0.972516
0.972137
0.972148
0.971697
0.971325
0.971314
0.971168
0.971243
0.971378
0.971357
0.971732
0.97225
0.973139
0.973815
0.974161
0.974162
0.973818
0.973138
0.972204
0.97172
0.971335
0.971362
0.971224
0.972478
0.972462
0.972141
0.972415
0.973132
0.973924
0.974473
0.974793
0.974794
0.974476
0.973921
0.973088
0.972381
0.972125
0.972454
0.972497
0.973987
0.973938
0.973512
0.973187
0.973248
0.973904
0.974439
0.974753
0.974753
0.974441
0.973903
0.973267
0.973219
0.973513
0.973926
0.973956
0.976051
0.975894
0.975254
0.974605
0.974291
0.974547
0.974944
0.97522
0.97522
0.974944
0.974549
0.974309
0.974636
0.975265
0.975877
0.976029
0.976583
0.976473
0.976033
0.975654
0.975543
0.975669
0.975931
0.976181
0.976182
0.975935
0.975667
0.975531
0.975648
0.976043
0.976509
0.976614
0.979288
0.979116
0.978482
0.977901
0.977463
0.977344
0.977458
0.977556
0.977554
0.977453
0.977333
0.977444
0.977891
0.978493
0.979147
0.97932
0.979608
0.979399
0.978893
0.978416
0.977918
0.977726
0.977627
0.977675
0.977673
0.977624
0.977726
0.97792
0.978424
0.978903
0.979413
0.979629
0.98191
0.981682
0.981158
0.980645
0.98002
0.979619
0.979329
0.979168
0.979165
0.979318
0.979619
0.980023
0.980652
0.981166
0.981691
0.981919
0.98301
0.982686
0.98204
0.981509
0.980827
0.980194
0.979703
0.979476
0.979474
0.979704
0.980195
0.980832
0.981518
0.982052
0.982702
0.983029
0.984299
0.984046
0.983519
0.982945
0.982161
0.981397
0.980725
0.980387
0.980386
0.980725
0.981398
0.982164
0.982948
0.98352
0.984042
0.984294
0.984756
0.984554
0.984102
0.983492
0.982655
0.981855
0.981068
0.980628
0.980627
0.981067
0.981857
0.982654
0.983491
0.984096
0.984537
0.984733
0.98543
0.985269
0.984882
0.984301
0.983428
0.982512
0.981654
0.981172
0.981172
0.981654
0.982512
0.983428
0.984296
0.98487
0.985249
0.985406
0.985679
0.985535
0.985178
0.984615
0.983733
0.982756
0.981862
0.981372
0.981372
0.981861
0.982755
0.983733
0.984608
0.985166
0.985517
0.985657
0.986
0.985873
0.985535
0.98495
0.984027
0.982992
0.982056
0.98154
0.98154
0.982055
0.982991
0.984028
0.984949
0.985529
0.985868
0.985992
0.986179
0.986053
0.985699
0.985059
0.984109
0.983055
0.982106
0.981576
0.981575
0.982104
0.983053
0.984109
0.985062
0.985706
0.986067
0.986192
0.986301
0.986178
0.985831
0.98518
0.984222
0.983137
0.98215
0.981591
0.981589
0.982145
0.983129
0.984216
0.98518
0.985841
0.986201
0.986325
0.986347
0.986221
0.985874
0.98521
0.984249
0.983159
0.982166
0.981598
0.981594
0.982157
0.983147
0.984238
0.985207
0.985883
0.98625
0.986379
0.986325
0.986198
0.985854
0.985196
0.984254
0.983179
0.982201
0.981636
0.981633
0.982191
0.983162
0.984238
0.985187
0.985858
0.986223
0.986351
0.986264
0.986128
0.985788
0.985146
0.98424
0.983202
0.982268
0.981728
0.98173
0.98227
0.983196
0.984229
0.985135
0.985782
0.986135
0.986279
0.986178
0.986025
0.9857
0.985079
0.984216
0.983241
0.982368
0.981864
0.981871
0.982384
0.98326
0.984221
0.985072
0.985684
0.985997
0.98616
0.986085
0.985914
0.985606
0.985003
0.984181
0.983264
0.982466
0.982004
0.982012
0.982489
0.983294
0.984207
0.985009
0.985584
0.985857
0.986027
0.986005
0.985828
0.985504
0.984902
0.9841
0.983248
0.982513
0.982087
0.982094
0.982534
0.983283
0.984137
0.984916
0.985491
0.985761
0.985926
0.985927
0.985732
0.985365
0.98475
0.983996
0.983168
0.982474
0.982079
0.982082
0.982485
0.983182
0.984012
0.98477
0.985379
0.98569
0.985879
0.985882
0.985656
0.985181
0.984547
0.98379
0.983006
0.982379
0.982024
0.982023
0.98238
0.983016
0.983811
0.984576
0.985216
0.98567
0.985871
0.985744
0.985482
0.984987
0.984315
0.983569
0.982854
0.982304
0.981994
0.981993
0.982306
0.982867
0.983605
0.984361
0.985042
0.985532
0.985796
0.985549
0.985252
0.984764
0.98412
0.983426
0.982787
0.9823
0.982029
0.982034
0.982315
0.98281
0.98346
0.984161
0.984822
0.985325
0.985616
0.985276
0.984993
0.984567
0.983996
0.983365
0.982788
0.982336
0.982086
0.982098
0.982361
0.982813
0.983394
0.984019
0.98461
0.985062
0.985349
0.985007
0.984754
0.98443
0.983905
0.983332
0.982787
0.982345
0.982094
0.982105
0.982367
0.982799
0.983331
0.983917
0.98445
0.984826
0.985092
0.984803
0.984572
0.984308
0.983839
0.983283
0.982737
0.982278
0.982005
0.982004
0.98227
0.982719
0.983264
0.983814
0.984328
0.98466
0.984913
0.984676
0.984447
0.984169
0.983681
0.983143
0.982595
0.982139
0.981868
0.981859
0.982113
0.982553
0.983098
0.983654
0.984184
0.984522
0.984776
0.984625
0.984387
0.984003
0.98345
0.982914
0.9824
0.982003
0.98178
0.981772
0.981988
0.982384
0.982903
0.983466
0.984015
0.984419
0.984687
0.984544
0.984262
0.983767
0.983174
0.982649
0.982192
0.981866
0.981746
0.981752
0.981902
0.982222
0.982696
0.983219
0.983761
0.984195
0.984482
0.984453
0.984105
0.983547
0.982902
0.982379
0.981989
0.981784
0.981702
0.981696
0.981827
0.982087
0.982462
0.982953
0.983525
0.983997
0.98429
0.984232
0.983853
0.983293
0.982656
0.982149
0.981792
0.98158
0.981524
0.981477
0.981601
0.981825
0.982187
0.98268
0.983289
0.983808
0.984156
0.983927
0.983544
0.983041
0.982463
0.981993
0.981674
0.98145
0.981338
0.981287
0.981408
0.981615
0.981958
0.982455
0.983098
0.983675
0.984099
0.983631
0.983272
0.98286
0.982355
0.981951
0.981678
0.981475
0.981363
0.98134
0.98143
0.98159
0.98189
0.982349
0.982943
0.983476
0.983866
0.983403
0.983083
0.982781
0.982331
0.981954
0.981716
0.981589
0.981533
0.981522
0.981575
0.981685
0.981948
0.982333
0.982769
0.983137
0.983488
0.983451
0.983128
0.982771
0.982293
0.981888
0.981592
0.98149
0.981525
0.981524
0.981564
0.981672
0.981939
0.98229
0.982659
0.982838
0.983131
0.983617
0.983266
0.982777
0.982168
0.981647
0.981192
0.980958
0.980942
0.980924
0.981036
0.981288
0.981707
0.982174
0.982681
0.982937
0.983257
0.983615
0.983208
0.98267
0.981991
0.981374
0.980842
0.980421
0.980312
0.980265
0.980457
0.9808
0.981351
0.981983
0.982742
0.9834
0.983827
0.983657
0.983219
0.98267
0.981915
0.981276
0.98089
0.980659
0.980616
0.980645
0.980731
0.980834
0.981241
0.981951
0.982925
0.983724
0.984298
0.983638
0.983227
0.982708
0.981886
0.981268
0.980949
0.98092
0.980942
0.981057
0.981059
0.980993
0.981269
0.981963
0.982813
0.983367
0.983923
0.98405
0.983531
0.982749
0.981694
0.980923
0.980566
0.980544
0.980584
0.980753
0.980835
0.980972
0.981201
0.981856
0.982735
0.983065
0.983509
0.984852
0.984054
0.98261
0.981299
0.980348
0.979967
0.979849
0.979908
0.980049
0.98024
0.980498
0.980702
0.981451
0.98247
0.983217
0.983782
0.985727
0.98467
0.982682
0.981105
0.980305
0.980032
0.979564
0.979306
0.979215
0.97958
0.980072
0.980348
0.981243
0.982526
0.984145
0.985223
0.985908
0.984667
0.983054
0.981365
0.980527
0.980178
0.979611
0.979302
0.979102
0.979475
0.980086
0.98042
0.981549
0.983284
0.985149
0.986504
0.987208
0.986341
0.984412
0.98228
0.981395
0.980215
0.979892
0.979903
0.979899
0.980136
0.980727
0.981397
0.982415
0.984455
0.986404
0.987821
0.989278
0.988014
0.98544
0.982814
0.981523
0.979847
0.979624
0.979887
0.980089
0.980076
0.980677
0.981713
0.983107
0.985235
0.985867
0.986918
0.996694
0.993728
0.988158
0.982614
0.980799
0.97853
0.97664
0.976064
0.976037
0.976616
0.978517
0.980042
0.983321
0.987118
0.990948
0.994522
1.00909
1.00429
0.993346
0.98476
0.982208
0.978657
0.974957
0.973356
0.973203
0.974718
0.977836
0.980344
0.986127
0.995098
1.00372
1.00921
1.0148
1.00979
0.998094
0.988441
0.987543
0.981361
0.975419
0.973464
0.973271
0.975522
0.980887
0.986796
0.992069
1.00699
1.021
1.01811
1.04757
1.03688
1.01353
0.997571
0.995542
0.984679
0.976763
0.974991
0.97507
0.977039
0.984456
0.994321
0.995009
1.01181
1.03492
1.04829
1.10154
1.08532
1.03987
1.00628
0.999606
0.985134
0.976013
0.974429
0.97456
0.976414
0.9846
0.998236
1.00427
1.03807
1.0837
1.10105
1.26825
1.23745
1.13644
1.04317
1.01845
0.990396
0.976495
0.969219
0.969303
0.97669
0.989702
1.0177
1.04552
1.13742
1.23612
1.2666
1.47665
1.42981
1.27586
1.11325
1.04707
0.994747
0.979232
0.967921
0.967974
0.97937
0.99465
1.04651
1.1158
1.2762
1.42989
1.4766
1.6656
1.60655
1.41049
1.1919
1.05716
0.996742
0.981074
0.969812
0.969625
0.981247
0.997193
1.05738
1.19359
1.411
1.60611
1.66554
1.79428
1.72473
1.49299
1.23908
1.06037
1.00255
0.97569
0.966789
0.966929
0.976808
0.999654
1.05988
1.24049
1.49586
1.7242
1.79306
1.85171
1.75964
1.49767
1.23981
1.06025
1.00374
0.968887
0.96109
0.962202
0.972715
0.999216
1.05998
1.24275
1.50048
1.76143
1.8516
1.85891
1.77534
1.5323
1.26126
1.0669
1.00292
0.969918
0.960341
0.961112
0.9759
0.998352
1.06712
1.26465
1.53584
1.77634
1.85876
1.91741
1.84425
1.59812
1.30137
1.08277
1.00332
0.976616
0.961707
0.961627
0.978138
1.00008
1.08223
1.30199
1.59946
1.84446
1.91708
1.96525
1.9094
1.68835
1.36131
1.09699
0.999237
0.972791
0.958119
0.95777
0.971886
0.99851
1.09458
1.35928
1.6878
1.9088
1.96475
1.96911
1.9404
1.7866
1.44443
1.13823
1.00007
0.966892
0.952896
0.95304
0.964683
1.00471
1.13261
1.4412
1.78572
1.9402
1.96874
1.99235
1.98219
1.86968
1.54414
1.21065
1.00781
0.963354
0.951256
0.951209
0.963128
1.01383
1.20905
1.54098
1.86862
1.98237
1.99251
2.0151
2.00208
1.91343
1.65441
1.30473
1.05568
0.963792
0.95162
0.951985
0.965771
1.05509
1.30467
1.65216
1.9127
2.00238
2.01559
2.03449
2.02594
1.96115
1.75926
1.41112
1.10124
0.971047
0.952518
0.95328
0.972944
1.10035
1.40863
1.758
1.96124
2.02627
2.03483
2.04685
2.04014
1.96433
1.77639
1.55068
1.25777
1.03957
0.957929
0.959282
1.03835
1.25453
1.54819
1.77571
1.96457
2.04037
2.04688
2.04829
2.0418
1.99059
1.8643
1.72736
1.47483
1.18425
1.02314
1.02229
1.18307
1.47352
1.72711
1.86557
1.99101
2.04191
2.04835
2.05567
2.05367
2.022
1.94111
1.86534
1.67839
1.37521
1.19907
1.19921
1.37587
1.67806
1.86521
1.94128
2.02132
2.05352
2.05534
2.05968
2.06207
2.04129
1.97732
1.87349
1.71139
1.57189
1.45324
1.45365
1.57255
1.71118
1.87304
1.97549
2.04013
2.06213
2.05963
2.06055
2.06375
2.0433
2.01791
1.94143
1.8385
1.77308
1.71917
1.71912
1.77297
1.83799
1.9399
2.01792
2.04298
2.06389
2.06088
2.06198
2.0643
2.05004
2.04115
2.00349
1.93888
1.88938
1.85767
1.85748
1.88918
1.93852
2.00229
2.04131
2.0522
2.06477
2.06248
2.06271
2.06458
2.05652
2.04895
2.02434
1.97731
1.93198
1.9035
1.90351
1.93204
1.97718
2.02432
2.04871
2.05636
2.06471
2.06289
2.06211
2.06436
2.06086
2.0569
2.04216
2.01874
1.99403
1.97802
1.97795
1.994
2.01995
2.04254
2.05671
2.06062
2.06444
2.06223
2.0616
2.06408
2.0614
2.05805
2.04758
2.04067
2.03324
2.02618
2.02604
2.03291
2.03896
2.04709
2.05791
2.06135
2.0642
2.06173
2.06151
2.06428
2.06306
2.06142
2.05529
2.05341
2.04485
2.0401
2.03995
2.04454
2.05294
2.05516
2.06143
2.06315
2.06436
2.06163
2.06124
2.06428
2.06474
2.06474
2.06174
2.05793
2.05571
2.05421
2.0541
2.05572
2.05792
2.06204
2.06489
2.06485
2.06439
2.06136
2.06117
2.06438
2.06629
2.06735
2.06602
2.06345
2.05956
2.05736
2.05733
2.05979
2.0636
2.06624
2.06748
2.06633
2.06445
2.06125
2.06151
2.06416
2.06615
2.06747
2.06684
2.06653
2.06554
2.06513
2.06505
2.06581
2.06712
2.06712
2.06759
2.06619
2.0642
2.06155
2.06255
2.06468
2.06689
2.06874
2.06913
2.06952
2.06891
2.0685
2.06853
2.06898
2.06968
2.06923
2.06878
2.06688
2.0647
2.0626
2.06425
2.06598
2.06815
2.07013
2.07107
2.07169
2.07148
2.07124
2.07127
2.07151
2.07169
2.07108
2.0701
2.06812
2.06602
2.06432
2.06649
2.06783
2.06996
2.0713
2.07209
2.07246
2.07213
2.07185
2.07187
2.07217
2.07246
2.07205
2.07126
2.06994
2.06789
2.0666
2.06936
2.06978
2.07014
2.07134
2.07235
2.07283
2.07247
2.07214
2.07213
2.07244
2.07279
2.0723
2.0713
2.07017
2.0699
2.06948
2.07304
2.07273
2.07234
2.07238
2.07247
2.07278
2.07241
2.07221
2.07218
2.07234
2.07273
2.07245
2.07239
2.07244
2.07284
2.07313
2.07757
2.07649
2.07494
2.07367
2.07268
2.07254
2.07241
2.07246
2.07243
2.07236
2.07251
2.07269
2.07374
2.07504
2.07656
2.07762
2.08258
2.08075
2.07767
2.07497
2.07297
2.07207
2.07183
2.07193
2.07192
2.07181
2.07206
2.073
2.07502
2.07773
2.08076
2.08258
2.08746
2.08505
2.08069
2.07664
2.07344
2.07142
2.07045
2.07026
2.07027
2.07046
2.07143
2.07345
2.07666
2.08069
2.08501
2.08741
2.09182
2.08915
2.08399
2.07868
2.07367
2.0706
2.06887
2.0682
2.06821
2.0689
2.07062
2.07368
2.07866
2.08395
2.08908
2.09176
2.0956
2.09304
2.08737
2.08113
2.07487
2.07047
2.06787
2.06661
2.06662
2.0679
2.07051
2.07488
2.08108
2.08732
2.09298
2.09556
2.09876
2.09663
2.09053
2.08366
2.07683
2.07157
2.06796
2.06614
2.06615
2.06797
2.07157
2.0768
2.08362
2.09049
2.0966
2.09874
2.10071
2.09924
2.09337
2.08663
2.07976
2.07393
2.06965
2.06738
2.06738
2.06965
2.07392
2.07974
2.08659
2.09334
2.09923
2.10071
2.10052
2.09996
2.09577
2.09011
2.08385
2.0779
2.07323
2.07066
2.07066
2.07322
2.07789
2.08384
2.0901
2.09576
2.09996
2.10051
2.09841
2.09912
2.09718
2.09369
2.08868
2.08322
2.07863
2.07601
2.076
2.07861
2.0832
2.08867
2.09369
2.09717
2.09911
2.0984
2.09447
2.09647
2.09737
2.09656
2.09377
2.0896
2.08563
2.08328
2.08327
2.08561
2.08957
2.09376
2.09655
2.09737
2.09646
2.09445
2.08891
2.09176
2.09565
2.09835
2.09908
2.09731
2.09455
2.0927
2.0927
2.09453
2.09729
2.09907
2.09834
2.09565
2.09175
2.0889
2.08292
2.08585
2.09246
2.09874
2.10343
2.1056
2.10586
2.10546
2.10546
2.10587
2.10559
2.10341
2.09873
2.09245
2.08583
2.08291
2.08171
2.08361
2.08947
2.09741
2.10538
2.11327
2.1192
2.12218
2.12219
2.11921
2.11327
2.10538
2.0974
2.08945
2.08361
2.08171
2.08397
2.08498
2.08855
2.09551
2.10632
2.11974
2.13274
2.14034
2.14034
2.13276
2.11974
2.10632
2.0955
2.08855
2.08499
2.08398
2.08605
2.08739
2.09057
2.09681
2.10925
2.12553
2.1415
2.15114
2.15114
2.14151
2.12554
2.10925
2.09681
2.09058
2.0874
2.08608
2.08868
2.09029
2.096
2.10541
2.11706
2.12923
2.13881
2.14514
2.14514
2.13881
2.12924
2.11707
2.10543
2.09602
2.09031
2.0887
2.09952
2.10227
2.11214
2.11933
2.12357
2.12469
2.1225
2.12096
2.12096
2.12249
2.12468
2.12357
2.11934
2.11215
2.10227
2.0995
2.13675
2.13547
2.1359
2.1322
2.12381
2.11266
2.10186
2.09408
2.09407
2.10184
2.11264
2.12378
2.13217
2.13586
2.13542
2.13669
2.1696
2.16484
2.15487
2.14111
2.12433
2.10832
2.09468
2.08803
2.08802
2.09466
2.10829
2.12428
2.14107
2.15483
2.1648
2.16956
2.16978
2.16609
2.1546
2.14119
2.12744
2.11531
2.10581
2.10205
2.10205
2.1058
2.1153
2.12744
2.14118
2.15459
2.16608
2.16978
2.13216
2.13166
2.12774
2.12313
2.1198
2.11711
2.11645
2.11586
2.11587
2.11646
2.11711
2.11982
2.12315
2.12777
2.1317
2.13219
2.08677
2.08909
2.09353
2.09819
2.10309
2.10764
2.11123
2.11288
2.11288
2.11124
2.10766
2.10311
2.09822
2.09356
2.08913
2.0868
2.07064
2.07222
2.07654
2.08225
2.08835
2.09384
2.0978
2.09976
2.09977
2.09781
2.09385
2.08837
2.08227
2.07656
2.07223
2.07066
2.08064
2.08075
2.08166
2.08381
2.08675
2.08948
2.09145
2.09247
2.09247
2.09146
2.08949
2.08675
2.08381
2.08167
2.08075
2.08064
2.09577
2.0957
2.09569
2.09561
2.09558
2.09571
2.0959
2.09604
2.09604
2.0959
2.09571
2.09558
2.09561
2.09569
2.0957
2.09577
2.10909
2.10898
2.10874
2.10845
2.10815
2.10791
2.10775
2.10767
2.10767
2.10775
2.10791
2.10815
2.10845
2.10874
2.10898
2.10909
2.12076
2.12075
2.1207
2.12062
2.12051
2.1204
2.12032
2.12027
2.12027
2.12032
2.1204
2.12051
2.12062
2.1207
2.12075
2.12076
2.12651
2.12651
2.1265
2.12649
2.12648
2.12647
2.12645
2.12644
2.12644
2.12645
2.12647
2.12648
2.12649
2.1265
2.12651
2.12651
2.13271
2.13271
2.13272
2.13274
2.13276
2.13277
2.13278
2.13279
2.13279
2.13278
2.13277
2.13276
2.13274
2.13272
2.13271
2.13271
2.15371
2.15371
2.15371
2.15371
2.15371
2.15371
2.15371
2.15371
2.15371
2.15371
2.15371
2.15371
2.15371
2.15371
2.15371
2.15371
2.16411
2.16411
2.16411
2.16411
2.1641
2.1641
2.1641
2.1641
2.1641
2.1641
2.1641
2.1641
2.16411
2.16411
2.16411
2.16411
2.00455
2.00455
2.00455
2.00455
2.00455
2.00455
2.00455
2.00455
2.00455
2.00455
2.00455
2.00455
2.00455
2.00455
2.00455
2.00455
1.45323
1.45323
1.45323
1.45324
1.45324
1.45324
1.45324
1.45324
1.45324
1.45324
1.45324
1.45324
1.45324
1.45323
1.45323
1.45323
0.626438
0.626438
0.626438
0.626438
0.626438
0.626438
0.626438
0.626438
0.626438
0.626438
0.626438
0.626438
0.626438
0.626438
0.626438
0.626438
SCALARS u double
LOOKUP_TABLE default
0.000210312
0.000675978
0.000735326
0.000836326
0.000773479
0.000703283
0.000488928
0.000236412
-3.45922e-05
-0.000277124
-0.000451224
-0.000500195
-0.000570506
-0.000514061
-0.000484204
-7.53335e-05
0.000231814
0.000988629
0.00111879
0.000954774
0.000883609
0.000689028
0.000452355
0.000174643
-0.00011448
-0.000363146
-0.000606625
-0.000802015
-0.000949166
-0.00111787
-0.00101804
-0.00023628
0.000245448
0.000877711
0.00118516
0.00122712
0.00102667
0.000803506
0.000455705
0.000143535
-0.00013584
-0.000461315
-0.000763477
-0.00102938
-0.00126101
-0.00120309
-0.000922797
-0.00025539
0.000273678
0.000720647
0.000712284
0.00070447
0.000364382
9.202e-05
2.15303e-05
-3.43214e-05
4.18473e-05
-1.09918e-06
-8.56533e-05
-0.000365281
-0.000710448
-0.000711923
-0.000719136
-0.000272207
0.00023825
0.000573835
0.000595721
0.000590492
0.000353282
5.57863e-05
-0.000145763
-7.63627e-05
7.46869e-05
0.000144025
-5.10439e-05
-0.0003387
-0.000581512
-0.000589971
-0.000562275
-0.000231044
0.000136714
7.02208e-05
-0.000186469
-0.000451035
-0.000576983
-0.000496977
-0.000367861
-0.000124054
0.000123344
0.000372905
0.000513102
0.000596209
0.000461693
0.000207104
-5.78445e-05
-0.000131423
-2.39441e-06
-0.000584687
-0.000863222
-0.000748379
-0.000618203
-0.000518025
-0.000374358
-8.773e-05
8.87369e-05
0.000381246
0.000535173
0.000637406
0.000781806
0.000883221
0.000595511
5.30068e-06
-0.000105261
-0.00110015
-0.00165512
-0.00165258
-0.00138028
-0.00100421
-0.000607756
-0.00013703
0.000137331
0.000614798
0.00101462
0.00138824
0.00166761
0.00166547
0.0011091
0.000106834
-0.000206361
-0.00150482
-0.00200248
-0.00216671
-0.00174204
-0.00101207
-0.000452432
-0.000100347
9.72205e-05
0.000455055
0.0010226
0.0017625
0.00218773
0.00202731
0.00151809
0.000209986
-0.000235509
-0.00165305
-0.00242501
-0.00261534
-0.0022409
-0.00147127
-0.000782604
-0.000185097
0.000181171
0.000780643
0.00147392
0.00224994
0.00262914
0.00244002
0.00165708
0.000235454
-0.00033415
-0.00181163
-0.00259001
-0.0027915
-0.0022444
-0.00147471
-0.000798515
-0.000210001
0.000206664
0.000795909
0.00147691
0.00225417
0.00280721
0.00260626
0.0018215
0.000335554
-0.000367541
-0.00192659
-0.00262128
-0.00307227
-0.00264525
-0.00193177
-0.00115443
-0.000356881
0.00034847
0.00114934
0.00193144
0.0026497
0.0030855
0.00263681
0.00193697
0.000368313
-0.000408342
-0.00193625
-0.00254212
-0.00293415
-0.00275544
-0.00232346
-0.00151906
-0.000528043
0.00052005
0.00151472
0.00232428
0.00276797
0.00294679
0.00256332
0.00195148
0.000406611
-0.000413876
-0.00192158
-0.00259681
-0.00309439
-0.00309011
-0.00265535
-0.0018103
-0.000644072
0.000637644
0.00180756
0.00265688
0.00309528
0.0031059
0.00261086
0.00193129
0.000417197
-0.000389024
-0.00174449
-0.00240337
-0.00299602
-0.00304092
-0.00267835
-0.0018362
-0.000651779
0.000649139
0.0018356
0.0026798
0.00304462
0.00300168
0.00241338
0.00175049
0.000390055
-0.000370665
-0.00161392
-0.00213707
-0.00291355
-0.00312691
-0.00282387
-0.00203348
-0.000749358
0.000752142
0.00203572
0.00282598
0.00312814
0.00291318
0.00213472
0.00161433
0.000371223
-0.000342315
-0.00144018
-0.00208884
-0.00283223
-0.00312293
-0.00284588
-0.00202201
-0.000737202
0.000742783
0.00202502
0.00284717
0.00312195
0.00282922
0.00208471
0.00143773
0.000342503
-0.000309757
-0.00122053
-0.00180379
-0.00260341
-0.00295639
-0.00286766
-0.00210579
-0.000779625
0.000787513
0.00210895
0.002867
0.00295147
0.00259763
0.00179487
0.00121408
0.000309336
-0.000270875
-0.0010101
-0.00155397
-0.00238
-0.00284109
-0.00279844
-0.00204245
-0.000754465
0.00076185
0.00204554
0.00279634
0.00283363
0.00236562
0.0015388
0.000999196
0.000269676
-0.00023046
-0.000819276
-0.0013223
-0.00209782
-0.00258159
-0.00257979
-0.00188049
-0.000696629
0.000701942
0.00188234
0.00257578
0.00257169
0.00208412
0.00130839
0.000807795
0.000228647
-0.000190371
-0.00064667
-0.00113209
-0.00183959
-0.00229864
-0.00234765
-0.0017082
-0.000630863
0.000633194
0.00170708
0.00234486
0.00229091
0.00182721
0.00111902
0.000635188
0.000188141
-0.000156709
-0.00051213
-0.000970781
-0.00158503
-0.00198845
-0.00205754
-0.00151173
-0.000566062
0.000568477
0.00151251
0.0020539
0.00198155
0.00157748
0.000964133
0.000505053
0.000154861
-0.00012944
-0.000397567
-0.000812639
-0.00133215
-0.00167681
-0.00174845
-0.00127538
-0.000477774
0.000475417
0.00127307
0.001746
0.00167469
0.00133049
0.000812477
0.000396141
0.000128402
-0.000109051
-0.000292034
-0.000655568
-0.0010755
-0.00134465
-0.0014095
-0.00102561
-0.000387319
0.000382302
0.00102276
0.00140784
0.00134517
0.00107948
0.000660685
0.000294636
0.000108559
-9.38493e-05
-0.000206482
-0.000494993
-0.000807064
-0.000996385
-0.00104342
-0.000750821
-0.00028656
0.00027936
0.000746484
0.00104229
0.00100011
0.000815722
0.000505728
0.00021544
9.36484e-05
-8.06494e-05
-0.000118952
-0.000317848
-0.000518986
-0.000633554
-0.000674236
-0.000482912
-0.000189144
0.00018149
0.000476631
0.000673266
0.000639411
0.00052904
0.000330148
0.000131717
8.04921e-05
-6.3758e-05
-4.41347e-05
-0.000143013
-0.00023445
-0.000273327
-0.00030235
-0.000207936
-8.64823e-05
8.46981e-05
0.000204753
0.000300042
0.000275405
0.000241226
0.000152533
5.46016e-05
6.51413e-05
-4.49095e-05
2.44801e-05
2.69313e-05
4.2364e-05
7.41735e-05
5.75921e-05
5.82577e-05
1.39819e-05
-6.37902e-06
-5.55458e-05
-5.99879e-05
-7.78442e-05
-4.35029e-05
-2.63272e-05
-2.0185e-05
4.55746e-05
-2.87651e-05
9.12364e-05
0.000182197
0.000299638
0.000401176
0.00039588
0.000312321
0.000110813
-9.34643e-05
-0.000301576
-0.000396199
-0.000410068
-0.000311004
-0.000195164
-9.68365e-05
2.82373e-05
-1.54115e-05
0.000155359
0.000325178
0.000532485
0.000698091
0.000705437
0.000544748
0.00019953
-0.000177008
-0.000527165
-0.000701388
-0.000707751
-0.000551399
-0.000350323
-0.000171813
1.41534e-05
-1.24835e-06
0.000211846
0.000452162
0.000736957
0.000957092
0.000978314
0.000750567
0.000277051
-0.000255104
-0.000731857
-0.000969856
-0.000961513
-0.000756454
-0.000478777
-0.000231491
-3.96177e-06
1.46546e-05
0.000261804
0.000561144
0.000914129
0.00118542
0.00121912
0.000924763
0.000340343
-0.000326528
-0.000908965
-0.00120708
-0.00118472
-0.000924867
-0.000574032
-0.000277149
-2.01123e-05
2.52684e-05
0.000313397
0.000662065
0.00108133
0.00139284
0.00142818
0.00107682
0.000393695
-0.000391546
-0.00107047
-0.00141771
-0.00138427
-0.00107707
-0.000647175
-0.000314424
-2.91234e-05
3.32391e-05
0.000371756
0.000775103
0.00125081
0.00159283
0.0016215
0.00121209
0.000440678
-0.000449233
-0.00121659
-0.00161868
-0.00157995
-0.00123065
-0.000743967
-0.000356902
-3.56042e-05
4.18696e-05
0.000460341
0.000925088
0.0014396
0.00179465
0.0017993
0.00133018
0.000481455
-0.000497343
-0.00134431
-0.0018061
-0.00178211
-0.00141282
-0.000869697
-0.000426748
-4.14401e-05
5.75514e-05
0.000585162
0.00110984
0.00164322
0.00199121
0.00195609
0.00142805
0.000513905
-0.000535703
-0.00144871
-0.00197068
-0.00198515
-0.00162363
-0.00106687
-0.000548099
-5.27982e-05
8.00016e-05
0.00072852
0.00130191
0.00184003
0.00216502
0.0020833
0.0015042
0.000537629
-0.000565915
-0.00152952
-0.0021026
-0.00216734
-0.00182993
-0.00127233
-0.000695067
-7.33145e-05
0.000104972
0.000855434
0.0014643
0.00200736
0.00231014
0.00218754
0.00156651
0.000556634
-0.000590262
-0.00159423
-0.00220948
-0.00232048
-0.00200728
-0.00144783
-0.000830684
-9.85375e-05
0.000128005
0.000936121
0.00157619
0.00214365
0.00243662
0.00228798
0.00163296
0.000579432
-0.000615233
-0.00166018
-0.00230775
-0.00245349
-0.00215275
-0.00157604
-0.000928756
-0.000122476
0.000147757
0.000971591
0.00164055
0.00226267
0.00257071
0.00241388
0.00173021
0.000620365
-0.000647075
-0.0017508
-0.00243091
-0.00258724
-0.00228454
-0.00167273
-0.000989318
-0.000143689
0.000163557
0.00100453
0.00171906
0.00239841
0.00273714
0.00258564
0.00186421
0.000675541
-0.00069051
-0.00187626
-0.00259935
-0.00275912
-0.00243671
-0.00177807
-0.0010529
-0.000162128
0.000173797
0.00104314
0.00181791
0.00258562
0.0029472
0.00278287
0.00200673
0.000731323
-0.000738243
-0.00201414
-0.00279303
-0.00296649
-0.00262992
-0.00192058
-0.0011212
-0.000177393
0.000188539
0.0011674
0.00204617
0.00284113
0.00319137
0.00298059
0.00212322
0.000764375
-0.00078283
-0.00213546
-0.00298218
-0.00319313
-0.00286289
-0.00212183
-0.00124887
-0.000198228
0.000208341
0.00133031
0.00226414
0.00304255
0.0033773
0.00312984
0.00220127
0.000787753
-0.000813568
-0.00224141
-0.00315606
-0.00340629
-0.00305821
-0.00228059
-0.00134937
-0.00021547
0.000249046
0.00160277
0.00268767
0.00348935
0.00376664
0.00339598
0.002312
0.000800661
-0.000840701
-0.00237158
-0.00340708
-0.00376102
-0.00346641
-0.00264748
-0.00158323
-0.00025774
0.000304629
0.0018976
0.00309274
0.00389961
0.00412733
0.00367544
0.00249216
0.00085498
-0.000889954
-0.00254109
-0.00369612
-0.00413885
-0.00390917
-0.00308761
-0.00187926
-0.000310785
0.000333446
0.00194156
0.00310766
0.00391672
0.00414897
0.00370116
0.00255237
0.000917941
-0.000929961
-0.00262264
-0.00373063
-0.00417588
-0.00395081
-0.00314818
-0.00196989
-0.000329524
0.000403351
0.00219541
0.00348025
0.00436547
0.00458194
0.00404803
0.00279183
0.0010034
-0.00100872
-0.0028449
-0.00410066
-0.004652
-0.00447772
-0.00359731
-0.00225685
-0.000406522
0.000461488
0.0024114
0.00385281
0.00484705
0.00502936
0.00438297
0.00297522
0.00106217
-0.00107366
-0.00303674
-0.0044213
-0.00506957
-0.00490223
-0.00388149
-0.00242333
-0.000474074
0.000468883
0.00245867
0.00394844
0.00496127
0.00515893
0.00450523
0.00298706
0.00107184
-0.00108085
-0.00310186
-0.00452123
-0.0051663
-0.00495998
-0.00388054
-0.00243
-0.000478455
0.000556841
0.00291445
0.00466448
0.00581121
0.00602349
0.00524494
0.00344456
0.00121063
-0.00121988
-0.00357373
-0.00524498
-0.00599127
-0.00575686