# vtk DataFile Version 3.0
Grid data
ASCII
DATASET STRUCTURED_POINTS
DIMENSIONS 16 128 1
ORIGIN 0 0 0
SPACING 0.015625 0.0078125 1
POINT_DATA 2048
SCALARS rho double
LOOKUP_TABLE default
1.00652
1.00649
1.00645
1.0064
1.0062
1.00569
1.00551
1.0055
1.00552
1.00557
1.00569
1.00616
1.00651
1.00664
1.00675
1.00679
0.999527
0.999516
0.999563
0.999631
0.999445
0.998227
0.997509
0.997445
0.997522
0.997655
0.997924
0.99918
0.999704
0.999773
0.999816
0.999842
0.98894
0.988964
0.989132
0.989454
0.989825
0.989811
0.989048
0.988829
0.988955
0.989074
0.988887
0.989605
0.989513
0.989298
0.989191
0.989187
0.981276
0.981317
0.981523
0.981835
0.982566
0.98628
0.988058
0.987774
0.987876
0.987943
0.987315
0.982809
0.981777
0.981365
0.981211
0.981191
0.980058
0.9801
0.980314
0.980642
0.98149
0.981428
0.981952
0.981789
0.982077
0.982437
0.982111
0.981852
0.980607
0.980102
0.979939
0.979909
0.9766
0.97665
0.976849
0.977121
0.977341
0.9769
0.976901
0.977528
0.977425
0.977295
0.977058
0.977428
0.976913
0.976449
0.976306
0.976271
0.973465
0.973514
0.973747
0.974063
0.974115
0.974337
0.975508
0.9764
0.976181
0.974979
0.974322
0.974269
0.973873
0.973481
0.973323
0.973306
0.971883
0.971924
0.972166
0.972579
0.973027
0.973521
0.97457
0.975394
0.975267
0.974512
0.973808
0.97353
0.972756
0.972277
0.972077
0.972048
0.972057
0.972103
0.972335
0.972674
0.97289
0.973533
0.974525
0.975291
0.975292
0.974601
0.973795
0.973204
0.973019
0.972624
0.972372
0.972335
0.971812
0.971835
0.972033
0.972395
0.972712
0.973436
0.97437
0.975036
0.975096
0.974562
0.973757
0.973152
0.972928
0.972527
0.97232
0.972311
0.971803
0.971799
0.971887
0.972198
0.972674
0.973412
0.974282
0.974874
0.974943
0.974572
0.97393
0.973283
0.972777
0.972352
0.972179
0.972166
0.971802
0.971795
0.971886
0.97219
0.972697
0.973367
0.974088
0.974597
0.974725
0.974479
0.973971
0.973351
0.972771
0.972369
0.972158
0.972134
0.972034
0.972033
0.97214
0.972412
0.972829
0.973333
0.973806
0.974163
0.974286
0.974119
0.973717
0.973189
0.972677
0.972277
0.972057
0.972021
0.97232
0.972303
0.972358
0.97254
0.972845
0.973159
0.973465
0.973675
0.973732
0.973598
0.973262
0.97281
0.972354
0.972004
0.971776
0.971728
0.972415
0.972403
0.97249
0.972665
0.972906
0.973115
0.973202
0.973189
0.973107
0.972952
0.972704
0.972391
0.972055
0.971786
0.971591
0.971535
0.972264
0.972273
0.972393
0.972567
0.97272
0.972752
0.972733
0.972622
0.972456
0.972312
0.972191
0.97206
0.971887
0.971742
0.971613
0.971559
0.971913
0.971943
0.972083
0.972257
0.972415
0.972476
0.972355
0.9721
0.971896
0.971775
0.971757
0.971793
0.971798
0.971759
0.971682
0.971656
0.971212
0.971251
0.971407
0.971572
0.971711
0.971771
0.97167
0.971548
0.971445
0.971405
0.971445
0.971521
0.971579
0.971607
0.971631
0.971634
0.970514
0.970549
0.970665
0.970781
0.970884
0.970941
0.970984
0.970996
0.971007
0.97103
0.971082
0.971146
0.971208
0.971306
0.971344
0.971366
0.969995
0.969992
0.970023
0.970084
0.970154
0.970223
0.970337
0.970478
0.970588
0.970661
0.970698
0.970714
0.970731
0.970759
0.970774
0.970808
0.969846
0.969803
0.969735
0.969663
0.969663
0.969706
0.969838
0.96999
0.970136
0.970238
0.970219
0.970165
0.970103
0.970081
0.970075
0.970111
0.969977
0.969885
0.969729
0.969527
0.969379
0.969338
0.969387
0.969528
0.969687
0.9697
0.969614
0.969525
0.969419
0.969363
0.96935
0.969385
0.970038
0.969915
0.969716
0.969461
0.969189
0.968979
0.968918
0.968926
0.968978
0.969008
0.968966
0.968822
0.96872
0.968703
0.968726
0.968775
0.969779
0.969652
0.969481
0.96922
0.968891
0.968614
0.968333
0.968211
0.968144
0.968074
0.968046
0.968038
0.968072
0.968153
0.968251
0.968327
0.969059
0.968965
0.968896
0.968733
0.968492
0.968161
0.967819
0.967587
0.967378
0.967225
0.967228
0.967366
0.967554
0.967756
0.967914
0.968013
0.968088
0.968049
0.968101
0.968076
0.967993
0.96782
0.967624
0.967262
0.966919
0.96675
0.966806
0.96703
0.967305
0.967536
0.967664
0.967766
0.967247
0.967244
0.967347
0.967402
0.967403
0.967304
0.967185
0.96699
0.966761
0.966651
0.966737
0.966962
0.967242
0.967451
0.967498
0.9676
0.966741
0.96673
0.966797
0.96681
0.966811
0.966834
0.966751
0.966589
0.966578
0.966556
0.966661
0.96687
0.967109
0.967266
0.967277
0.967341
0.966432
0.966377
0.966319
0.966201
0.966067
0.96596
0.965915
0.965997
0.966084
0.966167
0.966327
0.966509
0.966695
0.966818
0.966822
0.966876
0.966242
0.966131
0.965932
0.965598
0.965311
0.965115
0.965066
0.965154
0.965289
0.965431
0.965626
0.965787
0.965941
0.96608
0.966145
0.96621
0.965961
0.965799
0.96551
0.965137
0.964814
0.964624
0.964601
0.964624
0.964723
0.964835
0.96497
0.965092
0.965215
0.965386
0.965538
0.965631
0.965989
0.965787
0.965463
0.965098
0.964805
0.964662
0.96465
0.964654
0.964713
0.964793
0.964857
0.964892
0.964985
0.965181
0.965352
0.965467
0.966367
0.96615
0.96582
0.965402
0.965025
0.964764
0.964669
0.964612
0.964658
0.964788
0.964907
0.964966
0.965218
0.965523
0.96572
0.965856
0.966905
0.966675
0.966299
0.965732
0.965137
0.964662
0.964305
0.964091
0.964183
0.964487
0.964896
0.965063
0.965657
0.966194
0.966442
0.966587
0.966797
0.966564
0.966187
0.965563
0.964862
0.964243
0.963768
0.963472
0.96357
0.963902
0.964481
0.964816
0.965615
0.966267
0.966546
0.966719
0.965765
0.965549
0.965304
0.964833
0.964353
0.963997
0.963706
0.963491
0.963458
0.963439
0.963794
0.964322
0.964815
0.965267
0.965652
0.965906
0.965245
0.965028
0.964802
0.964483
0.964237
0.964116
0.964024
0.963877
0.963777
0.963587
0.96374
0.964223
0.964469
0.964726
0.964974
0.965213
0.96593
0.96565
0.965237
0.964873
0.964695
0.964666
0.964571
0.964437
0.964431
0.96447
0.964666
0.964897
0.965026
0.965244
0.965353
0.965537
0.966928
0.966505
0.965766
0.965057
0.964661
0.96454
0.964406
0.96431
0.96439
0.964592
0.964857
0.965013
0.965405
0.966041
0.966531
0.966798
0.966938
0.966407
0.965617
0.964612
0.963504
0.962915
0.962444
0.962319
0.962399
0.962552
0.963174
0.963834
0.965026
0.966285
0.967414
0.968065
0.966604
0.965997
0.965231
0.964264
0.96313
0.962484
0.96183
0.961646
0.961737
0.961917
0.962711
0.963507
0.964871
0.966294
0.96743
0.968098
0.965866
0.965434
0.965154
0.964737
0.964311
0.964142
0.96362
0.963448
0.963486
0.963616
0.964093
0.964625
0.965377
0.96606
0.96654
0.96704
0.966454
0.965983
0.965784
0.965279
0.96489
0.964897
0.96435
0.964175
0.963999
0.964063
0.964557
0.964941
0.965519
0.96604
0.96624
0.966714
0.969008
0.968092
0.966601
0.965077
0.963438
0.963291
0.961856
0.961432
0.961157
0.961413
0.962641
0.963059
0.965031
0.96706
0.968299
0.969125
0.970958
0.969601
0.967182
0.964754
0.962419
0.962076
0.960309
0.959883
0.959575
0.959944
0.961484
0.961893
0.964525
0.96715
0.969273
0.970586
0.971285
0.969449
0.966931
0.964482
0.962543
0.962209
0.960916
0.960727
0.96044
0.960705
0.961987
0.962293
0.964309
0.966763
0.968762
0.969942
0.974694
0.972724
0.969533
0.964971
0.962196
0.961855
0.960158
0.959792
0.95983
0.960713
0.96213
0.96233
0.964602
0.968503
0.971913
0.973847
0.987489
0.985015
0.977461
0.968174
0.962506
0.961648
0.959268
0.958556
0.958697
0.959905
0.962361
0.962962
0.967714
0.974773
0.98211
0.985288
1.00427
1.00082
0.988949
0.972645
0.963432
0.961526
0.958268
0.956627
0.95689
0.958827
0.962688
0.964163
0.972476
0.984021
0.994098
0.998188
1.01249
1.00856
0.994141
0.975212
0.963783
0.96145
0.956508
0.953593
0.953697
0.956142
0.961765
0.964658
0.976232
0.993952
0.999524
1.00398
1.05396
1.04773
1.02255
0.988173
0.969161
0.963819
0.955132
0.950763
0.950624
0.954221
0.960924
0.964113
0.979449
1.00478
1.03039
1.03716
1.12444
1.115
1.07265
1.01428
0.981235
0.971507
0.959002
0.952205
0.952052
0.957639
0.967133
0.972389
0.996961
1.04624
1.0915
1.10276
1.18285
1.1673
1.10375
1.02545
0.984578
0.977081
0.960714
0.951347
0.951013
0.958757
0.972713
0.983385
1.02555
1.10524
1.1332
1.15542
1.37647
1.34543
1.22257
1.08134
0.999624
0.978561
0.957104
0.94475
0.944268
0.954753
0.97169
0.982998
1.03634
1.14593
1.28245
1.33426
1.57452
1.53133
1.36624
1.1619
1.02328
0.983812
0.954885
0.940222
0.940008
0.953681
0.978681
1.00462
1.10436
1.27968
1.47062
1.53689
1.63824
1.5925
1.4169
1.19065
1.0389
0.994851
0.95969
0.943213
0.9425
0.958446
0.992935
1.04412
1.21211
1.44737
1.58427
1.61063
1.85646
1.80438
1.6023
1.31129
1.08636
1.01498
0.960385
0.944058
0.941256
0.957498
0.996445
1.05283
1.28379
1.61586
1.8011
1.8436
1.98275
1.93307
1.7362
1.41739
1.13325
1.03345
0.956498
0.933938
0.932723
0.949095
1.00516
1.10359
1.38845
1.74268
1.93659
1.97732
1.98585
1.93771
1.74369
1.42203
1.13564
1.03558
0.954519
0.926313
0.928384
0.948452
1.03337
1.18013
1.49169
1.79693
1.94585
1.98106
2.04281
1.99816
1.8097
1.47743
1.17204
1.06365
0.966762
0.926206
0.933742
0.957753
1.03966
1.26555
1.57846
1.88165
2.01556
2.03966
2.06096
2.0209
1.84325
1.51882
1.20804
1.09906
0.982608
0.924078
0.935753
0.964264
1.0607
1.30647
1.61838
1.9023
2.03422
2.06082
2.05955
2.01718
1.834
1.52273
1.22415
1.12177
0.987258
0.918336
0.929166
0.961734
1.06587
1.31628
1.62291
1.89491
2.0366
2.06646
2.04992
2.00263
1.81359
1.51632
1.23145
1.13788
0.998087
0.916202
0.919415
0.958668
1.08428
1.33069
1.6171
1.87253
2.02658
2.06336
2.0363
1.9814
1.7844
1.50639
1.23495
1.14809
1.00249
0.91174
0.910919
0.963837
1.09795
1.33361
1.59844
1.84098
2.00616
2.04845
2.02736
1.96739
1.75891
1.49679
1.24883
1.13172
0.993496
0.910231
0.910417
0.980202
1.09054
1.31583
1.57251
1.81022
1.98854
2.03732
2.02114
1.95187
1.73682
1.48798
1.25795
1.09034
0.973006
0.910232
0.918661
0.989863
1.06969
1.28568
1.53963
1.78033
1.97429
2.03221
2.01238
1.93735
1.70318
1.45367
1.22843
1.05309
0.959586
0.91008
0.922557
0.988266
1.0502
1.24932
1.50048
1.74981
1.96078
2.02425
2.01354
1.92857
1.66924
1.39698
1.17286
1.05241
0.95332
0.905148
0.919187
0.976882
1.03067
1.21021
1.46186
1.72358
1.95039
2.0198
2.01217
1.92297
1.6459
1.35362
1.13593
1.06183
0.956985
0.902136
0.915262
0.960833
1.01184
1.18145
1.43048
1.70284
1.94061
2.01041
2.00705
1.91916
1.64342
1.34549
1.12769
1.06328
0.961662
0.903349
0.915382
0.959823
1.01046
1.1801
1.42705
1.69957
1.93027
2.00275
2.00227
1.90874
1.62146
1.32378
1.11628
1.05691
0.962454
0.904465
0.910951
0.945272
0.991146
1.15642
1.39349
1.66774
1.91763
1.99979
2.00042
1.90315
1.60495
1.30423
1.10385
1.04638
0.958643
0.902119
0.900421
0.924235
0.971434
1.13033
1.36368
1.64581
1.90958
1.99221
1.99805
1.89991
1.6033
1.30172
1.09493
1.03557
0.952526
0.898043
0.894976
0.919922
0.968676
1.12768
1.36147
1.64359
1.8995
1.98486
1.9971
1.89405
1.58902
1.28728
1.09094
1.03495
0.951503
0.894954
0.887612
0.909584
0.955966
1.10557
1.32927
1.61264
1.88708
1.9819
1.99666
1.89003
1.57653
1.27113
1.07982
1.02584
0.948972
0.894147
0.879213
0.894385
0.938112
1.08
1.29946
1.59124
1.88035
1.97783
1.9972
1.88978
1.56934
1.25883
1.0677
1.01381
0.941453
0.89085
0.874912
0.892065
0.935457
1.07688
1.29696
1.58899
1.87375
1.97276
1.99671
1.88651
1.56834
1.2575
1.06626
1.01254
0.940678
0.888456
0.868947
0.882147
0.922188
1.05551
1.26508
1.55768
1.86053
1.96903
1.99846
1.88503
1.55889
1.24798
1.05758
1.00293
0.9323
0.881388
0.861331
0.870402
0.908546
1.0346
1.23439
1.53504
1.85505
1.96774
1.99865
1.88222
1.55324
1.24502
1.0492
0.993141
0.923491
0.8752
0.854379
0.868517
0.906382
1.0301
1.23248
1.53253
1.84847
1.96604
2.00046
1.88067
1.54461
1.23419
1.04044
0.964443
0.921758
0.874085
0.849984
0.862358
0.898595
1.02117
1.18981
1.49854
1.84265
1.97094
2.0075
1.8843
1.53519
1.21627
1.02256
0.930061
0.907293
0.872711
0.849424
0.855652
0.885452
0.985737
1.14674
1.47324
1.84406
1.97956
2.01663
1.89279
1.53083
1.19557
0.993785
0.921305
0.905162
0.869671
0.848054
0.854895
0.881803
0.946795
1.12544
1.46782
1.85319
1.98927
2.02706
1.90597
1.53046
1.17635
0.96648
0.905517
0.893538
0.864953
0.843251
0.848903
0.868741
0.93586
1.11938
1.46809
1.86225
2.00295
2.03867
1.92355
1.54552
1.16542
0.940196
0.8897
0.880469
0.856666
0.838849
0.844305
0.855563
0.920038
1.112
1.47873
1.88662
2.0199
2.04852
1.94394
1.57438
1.16942
0.922569
0.87689
0.868044
0.847131
0.836599
0.84168
0.851699
0.905602
1.13322
1.52998
1.91954
2.03436
2.05467
1.97038
1.65066
1.21561
0.929272
0.872727
0.866541
0.845962
0.834904
0.841217
0.850309
0.901009
1.18363
1.60362
1.9453
2.03914
2.0558
1.99189
1.73205
1.28804
0.955764
0.874498
0.858586
0.839641
0.832486
0.837402
0.848187
0.926148
1.24814
1.6734
1.9639
2.04014
2.05561
2.00586
1.7831
1.35512
1.00004
0.863184
0.846116
0.834428
0.831979
0.835604
0.840315
0.96901
1.31178
1.72347
1.97777
2.04049
2.05625
2.00981
1.79367
1.3769
1.02196
0.848392
0.836085
0.827879
0.833958
0.841847
0.871746
1.00647
1.33878
1.73821
1.98109
2.04039
2.05678
2.03432
1.86424
1.48094
1.1186
0.886738
0.840309
0.825592
0.847047
0.90601
1.0249
1.13747
1.45593
1.81572
2.00244
2.03936
2.05942
2.05431
1.93027
1.59906
1.24554
0.962532
0.86085
0.825652
0.893187
1.03192
1.2235
1.30818
1.58169
1.87782
2.01951
2.03917
2.05948
2.0602
1.96843
1.67507
1.26573
0.978926
0.864965
0.831012
0.903663
1.05405
1.26004
1.33876
1.59771
1.88153
2.02121
2.04029
2.057
2.05912
1.97028
1.69681
1.36768
1.07239
0.888719
0.841964
0.941621
1.15844
1.40312
1.4702
1.69193
1.92858
2.03202
2.0421
2.05482
2.05818
1.99613
1.79759
1.52272
1.2356
1.01318
0.889626
1.06316
1.32466
1.58029
1.63104
1.80301
1.97708
2.04093
2.04317
2.05517
2.05828
2.01875
1.89464
1.69185
1.45905
1.24624
1.10226
1.27503
1.52102
1.72745
1.77177
1.89069
2.00015
2.04237
2.04476
2.05474
2.05756
2.0222
1.94154
1.83384
1.692
1.53679
1.42431
1.53756
1.69111
1.73975
1.86026
1.95545
2.02398
2.04825
2.04654
2.05673
2.0612
2.03292
1.98381
1.91968
1.82898
1.72727
1.68066
1.72278
1.79935
1.81443
1.89669
1.98533
2.0356
2.05599
2.05192
2.05905
2.06354
2.03707
1.98651
1.92244
1.84923
1.80193
1.7942
1.7986
1.83902
1.89287
1.94845
1.99611
2.03709
2.05854
2.05467
2.06723
2.07085
2.05357
2.01563
1.96684
1.92123
1.89806
1.89509
1.88527
1.90668
1.95721
1.99468
2.02095
2.05133
2.06752
2.06431
2.0848
2.08751
2.07397
2.0507
2.02111
1.99691
1.98561
1.97188
1.96538
1.97365
1.98381
2.01192
2.0486
2.0745
2.08715
2.08439
2.11284
2.11517
2.10422
2.0815
2.04888
2.01656
1.99584
2.00119
2.02387
2.03056
2.0347
2.05349
2.08109
2.10137
2.1125
2.10979
2.14105
2.14321
2.13342
2.11558
2.09169
2.06504
2.04712
2.04526
2.04465
2.05125
2.07096
2.09422
2.11459
2.12879
2.13876
2.13675
2.15991
2.16146
2.14954
2.1314
2.11154
2.09362
2.08128
2.07556
2.0682
2.07319
2.0898
2.10982
2.13088
2.14798
2.15794
2.15649
2.1633
2.16476
2.15827
2.14308
2.12527
2.11043
2.09909
2.09178
2.08759
2.09319
2.10685
2.12284
2.13907
2.15344
2.1614
2.16011
2.16451
2.16604
2.15871
2.14528
2.12835
2.11453
2.10346
2.09656
2.09422
2.09985
2.11166
2.12553
2.14026
2.15389
2.16182
2.16106
2.16182
2.16316
2.1565
2.14559
2.13167
2.11732
2.10761
2.10301
2.10453
2.10942
2.1182
2.12933
2.14124
2.15266
2.15942
2.15883
2.15809
2.15922
2.15462
2.14494
2.13417
2.12456
2.11789
2.1146
2.11437
2.11705
2.12287
2.13136
2.14177
2.15073
2.15554
2.15465
2.15521
2.15612
2.15306
2.14459
2.13388
2.12494
2.11848
2.11523
2.11511
2.11815
2.1241
2.13197
2.14188
2.14936
2.152
2.15066
2.15727
2.15801
2.15587
2.14845
2.13978
2.13242
2.12755
2.12524
2.12556
2.12819
2.13246
2.13798
2.14604
2.15223
2.15373
2.15244
2.16324
2.16411
2.16217
2.15692
2.15057
2.14463
2.14007
2.13885
2.13856
2.13994
2.1434
2.14857
2.15448
2.15933
2.16036
2.15935
2.1735
2.17402
2.17165
2.16778
2.16299
2.15811
2.15428
2.15329
2.15267
2.15352
2.15628
2.16085
2.16581
2.16956
2.17083
2.17023
2.18636
2.18626
2.18328
2.18099
2.1773
2.17358
2.17126
2.17068
2.17016
2.17019
2.172
2.17538
2.17917
2.18126
2.18387
2.1834
2.19324
2.19567
2.19674
2.19498
2.19309
2.19132
2.19049
2.19074
2.19033
2.18925
2.18978
2.19167
2.19369
2.19531
2.19538
2.19361
2.20365
2.20661
2.20883
2.20888
2.2092
2.20793
2.20666
2.20555
2.20482
2.20512
2.20597
2.20716
2.20728
2.20784
2.20634
2.20385
2.21311
2.21587
2.21943
2.21993
2.21999
2.21931
2.21801
2.21703
2.21649
2.21683
2.21784
2.21846
2.21846
2.21834
2.21495
2.21207
2.22513
2.22656
2.22874
2.22558
2.22072
2.21991
2.21838
2.21761
2.21718
2.21738
2.21871
2.21964
2.22474
2.22789
2.2254
2.22361
2.23715
2.23618
2.23449
2.23236
2.23405
2.23258
2.23126
2.23122
2.23087
2.23077
2.23254
2.23411
2.23166
2.23321
2.23465
2.23516
2.26985
2.26648
2.25885
2.25732
2.24753
2.24093
2.23834
2.23879
2.23855
2.23803
2.24127
2.24811
2.25693
2.25867
2.2655
2.26868
2.30456
2.30163
2.29594
2.29541
2.28542
2.27349
2.27101
2.26935
2.2692
2.27001
2.27479
2.28684
2.29632
2.29694
2.30184
2.30436
2.31829
2.31758
2.31718
2.30478
2.29745
2.29689
2.28874
2.28302
2.28324
2.29
2.29697
2.29854
2.30576
2.31625
2.31852
2.31997
2.31548
2.3142
2.32628
2.34944
2.35697
2.35846
2.35084
2.34305
2.34319
2.35134
2.35843
2.35713
2.34955
2.32624
2.31311
2.31243
2.35442
2.35638
2.36121
2.40089
2.42096
2.42929
2.42545
2.42063
2.42079
2.42565
2.42876
2.42002
2.39947
2.3632
2.36036
2.35948
2.43666
2.4423
2.44765
2.44544
2.46594
2.47403
2.47051
2.46527
2.46567
2.47121
2.47403
2.46529
2.44489
2.45047
2.44835
2.44354
2.50798
2.51864
2.54687
2.60203
2.63766
2.64482
2.64397
2.6401
2.64043
2.64484
2.64504
2.63643
2.5974
2.54693
2.52809
2.51868
2.53006
2.54522
2.67598
2.81502
2.87048
2.87673
2.87279
2.86523
2.8655
2.87352
2.87704
2.86757
2.80341
2.66818
2.55714
2.54491
2.71945
2.73074
2.84286
2.95096
3.00302
3.01548
2.99437
2.97567
2.97593
2.99556
3.01479
2.99924
2.93885
2.83352
2.75236
2.74581
3.16934
3.15488
3.05907
3.00235
2.96847
2.95552
2.93703
2.92468
2.92471
2.93705
2.95472
2.96597
2.99876
3.05917
3.16451
3.18849
2.78886
2.78291
2.69538
2.53122
2.40107
2.36524
2.36532
2.37067
2.37051
2.36516
2.36628
2.40593
2.53542
2.70179
2.79461
2.80537
SCALARS u double
LOOKUP_TABLE default
8.92305e-06
7.39584e-05
0.000109263
8.9791e-05
4.23206e-05
6.62863e-06
8.4726e-07
2.94829e-06
1.12215e-05
-3.45199e-06
-4.86926e-05
-9.25204e-05
-0.000107038
-0.000118176
-9.17424e-05
-1.19915e-05
1.1274e-05
8.24051e-05
8.04407e-05
9.91208e-06
-8.89413e-05
-0.000118328
-9.12523e-05
-4.02078e-05
3.18947e-05
6.81586e-05
6.55151e-05
2.6155e-05
-6.2965e-06
-6.73032e-05
-8.6213e-05
-1.39542e-05
8.05411e-06
3.73697e-05
3.12254e-06
-4.87615e-05
-0.000112804
-0.000148395
-0.000130738
-7.0504e-05
1.62917e-05
8.86121e-05
0.000132043
9.55285e-05
2.66873e-06
-5.32693e-05
-5.79562e-05
-7.63683e-06
4.08679e-06
4.64922e-07
-6.4896e-05
-0.000129064
-0.000175115
-0.000166149
-0.000126497
-8.33546e-05
-2.40586e-05
4.21625e-05
0.000137334
0.000157206
0.000102682
3.96135e-05
-6.88011e-06
-4.35425e-06
9.05488e-06
1.77044e-05
-1.69502e-05
-4.45289e-05
-5.33767e-05
-4.31044e-05
-5.40098e-05
-6.06157e-05
-4.42585e-05
-1.18018e-05
3.03788e-05
5.96108e-05
5.76941e-05
2.93675e-05
-2.01166e-05
-1.19514e-05
1.2639e-05
2.03531e-05
-2.8525e-05
-5.16871e-05
-3.7636e-05
-1.09478e-05
5.09335e-06
-1.61417e-05
-5.38994e-05
-5.82625e-05
2.8427e-05
7.21413e-05
6.3626e-05
5.02388e-05
1.02424e-05
-8.51534e-06
2.45624e-05
0.000101638
0.000154989
0.000196184
0.000206729
0.000178596
8.80875e-05
2.13987e-05
-1.19755e-05
-6.50174e-05
-0.000122648
-0.000130046
-0.00011029
-7.94047e-05
-6.14349e-05
-1.64359e-05
3.31606e-05
0.000126488
0.000170144
0.000218512
0.000225262
0.000196916
0.00017698
8.88591e-05
-8.32679e-06
-0.000118929
-0.000174869
-0.000161567
-0.000139516
-0.000104176
-8.89189e-05
-2.3905e-05
4.78646e-05
0.000230017
0.000349121
0.000403755
0.000396296
0.000375186
0.000287339
0.000145491
-9.54221e-06
-0.000161348
-0.000325403
-0.00041022
-0.000444742
-0.00037666
-0.000231088
-4.39889e-05
5.22565e-05
0.000247865
0.000400816
0.000516356
0.00053769
0.000476103
0.000331446
0.000150319
-5.42264e-05
-0.00025693
-0.000461945
-0.000584358
-0.00059122
-0.000460006
-0.000285799
-5.92969e-05
5.80993e-05
0.000290253
0.00047388
0.000601163
0.000598749
0.000490486
0.000298316
7.55265e-05
-0.000159892
-0.000382349
-0.000569256
-0.00067971
-0.000678008
-0.000560178
-0.000375085
-7.76898e-05
6.35669e-05
0.000321388
0.000513598
0.000643854
0.000620428
0.000462981
0.000227785
-3.12324e-05
-0.000277279
-0.00047575
-0.000621641
-0.000704653
-0.000723848
-0.00062391
-0.000426981
-8.7414e-05
6.72841e-05
0.000335658
0.000523107
0.000651627
0.000611018
0.000436811
0.000163571
-0.00012173
-0.000357578
-0.000524279
-0.000626266
-0.000677052
-0.000682021
-0.000589648
-0.000420126
-8.67116e-05
7.27017e-05
0.000379414
0.000575832
0.000672375
0.000608292
0.000405673
0.000120046
-0.000160894
-0.000386313
-0.00052818
-0.000598554
-0.000622527
-0.000596493
-0.000473388
-0.000340123
-7.55868e-05
7.61116e-05
0.000374157
0.000575169
0.00067734
0.000630539
0.000449341
0.000184418
-8.42983e-05
-0.000328608
-0.00050002
-0.000573241
-0.000570386
-0.000506305
-0.000367958
-0.000260591
-6.43461e-05
7.56132e-05
0.000359105
0.000559594
0.000677279
0.000652652
0.000506278
0.00028116
2.33587e-05
-0.00023449
-0.000443442
-0.000543043
-0.000537851
-0.000454609
-0.000305834
-0.00019729
-5.20689e-05
7.17068e-05
0.000328797
0.000499387
0.000637322
0.00064712
0.000572744
0.000405359
0.000159968
-0.000119951
-0.00037351
-0.000524322
-0.000541352
-0.000456094
-0.000293976
-0.000176968
-4.34439e-05
6.71627e-05
0.000288039
0.000425816
0.000575269
0.00062605
0.000614608
0.000485358
0.000251671
-4.05453e-05
-0.000329273
-0.000531129
-0.000584098
-0.000509733
-0.000339956
-0.000192088
-4.15449e-05
6.30624e-05
0.000271276
0.000389075
0.000532179
0.000598974
0.000614672
0.000509984
0.000287817
-1.69501e-05
-0.000335186
-0.000576367
-0.000664514
-0.000603882
-0.000425966
-0.000236976
-4.37956e-05
5.99118e-05
0.000279405
0.000397371
0.000523637
0.000575384
0.000579119
0.000465253
0.000245654
-5.93781e-05
-0.000385265
-0.000636396
-0.000741762
-0.0006887
-0.000508725
-0.000290332
-4.97414e-05
5.98356e-05
0.000307183
0.000471969
0.000569394
0.000572661
0.000521027
0.000365529
0.000137933
-0.000151729
-0.000441185
-0.000659881
-0.000760095
-0.000719019
-0.000555282
-0.000331508
-5.76407e-05
6.54341e-05
0.000386445
0.000587503
0.00067035
0.000624345
0.000492964
0.000268132
9.93645e-06
-0.000251411
-0.000470374
-0.000628552
-0.000707814
-0.00068436
-0.000552321
-0.000349381
-6.44567e-05
7.70531e-05
0.000489664
0.000735495
0.000823596
0.000748194
0.000542116
0.000248386
-5.61792e-05
-0.000312101
-0.000474509
-0.000565414
-0.000619243
-0.0006303
-0.000545931
-0.000361035
-6.93828e-05
9.3606e-05
0.000585883
0.00088042
0.00100339
0.000932772
0.000700185
0.000343002
-1.96817e-05
-0.000291179
-0.000450433
-0.000515107
-0.000578227
-0.00062451
-0.00057148
-0.000397456
-7.55903e-05
0.000111366
0.000643897
0.000976947
0.00115667
0.0011235
0.000899019
0.000536048
0.000140535
-0.0001858
-0.000407269
-0.000524106
-0.000634483
-0.000707507
-0.000669389
-0.000470174
-8.55804e-05
0.000124718
0.000647259
0.000992753
0.00123399
0.001261
0.0010803
0.00074631
0.000348575
-3.43488e-05
-0.000363484
-0.000589177
-0.00077118
-0.000862844
-0.000807333
-0.000560394
-0.000100281
0.000125842
0.000624939
0.000942095
0.00122468
0.00129589
0.00118227
0.000902451
0.000524252
9.91817e-05
-0.00032945
-0.000682835
-0.000933333
-0.0010355
-0.000920886
-0.000632798
-0.000117274
0.000126852
0.000607209
0.000908745
0.00119614
0.00127682
0.00119937
0.000974516
0.000610058
0.000158624
-0.000326966
-0.000772183
-0.0010706
-0.0011648
-0.000980833
-0.00066695
-0.000131184
0.000130901
0.000620727
0.000963923
0.00124399
0.00130302
0.00120254
0.000957361
0.000586458
0.000138171
-0.000374388
-0.000867361
-0.00117868
-0.00125894
-0.00101159
-0.000670873
-0.000138276
0.000135705
0.000693628
0.00110643
0.00139792
0.00142873
0.00126004
0.000926961
0.000501156
4.80434e-05
-0.000471315
-0.000972653
-0.00126392
-0.00130971
-0.00102747
-0.000696222
-0.000143451
0.000146224
0.000813139
0.00130624
0.00160142
0.00159873
0.00135872
0.000923516
0.000429726
-5.01799e-05
-0.000581805
-0.00107388
-0.00135116
-0.00141509
-0.00113279
-0.000743234
-0.000149295
0.000169522
0.000975413
0.00152785
0.00181302
0.00174057
0.00140545
0.000936412
0.000405782
-0.000115592
-0.000656766
-0.00113407
-0.00140413
-0.00151206
-0.00129862
-0.000849025
-0.000163033
0.000202039
0.00113534
0.00174502
0.00207244
0.00200377
0.00162149
0.00106873
0.000419395
-0.000199148
-0.000792802
-0.00125596
-0.00152719
-0.00167237
-0.0015132
-0.00100275
-0.000189051
0.000242312
0.0013244
0.00199761
0.00230551
0.00223977
0.00181938
0.00118356
0.000431352
-0.000276723
-0.000911899
-0.00128528
-0.00164243
-0.00189088
-0.00162707
-0.00106629
-0.000211991
0.0002836
0.00151729
0.00237161
0.00284618
0.00281789
0.00233479
0.00151786
0.000513668
-0.000428114
-0.00124575
-0.00165104
-0.00205571
-0.00240976
-0.00205841
-0.00133911
-0.000264709
0.000347821
0.00181268
0.00288285
0.00358128
0.00356378
0.00297324
0.00196792
0.000647859
-0.000548958
-0.001608
-0.00210825
-0.00270644
-0.0031457
-0.00269699
-0.00168928
-0.000323311
0.000400953
0.00200454
0.00319883
0.00404179
0.00405151
0.00343427
0.00232773
0.000801258
-0.000605125
-0.00183663
-0.00255652
-0.0032203
-0.00359986
-0.00314986
-0.00204722
-0.000412366
0.000417687
0.00204261
0.00318631
0.00394613
0.00393755
0.00331248
0.00226212
0.000825632
-0.000533212
-0.00181045
-0.00249365
-0.00315161
-0.00352729
-0.00312412
-0.00205736
-0.000429044
0.000547719
0.00272811
0.00424255
0.00511623
0.00491596
0.00410105
0.00281328
0.00105784
-0.000634458
-0.00223041
-0.00317997
-0.00401007
-0.00440685
-0.00387916
-0.00258541
-0.000545611
0.000780044
0.00404916
0.00627476
0.00734941
0.00683183
0.00556111
0.00375283
0.00135706
-0.000896833
-0.00293456
-0.00428234
-0.00541828
-0.00610287
-0.0053196
-0.00337639
-0.000652647
0.00102059
0.00525203
0.00813857
0.00952485
0.00876503
0.0070491
0.00470323
0.00159999
-0.00127638
-0.00387146
-0.00543109
-0.00707101
-0.00807383
-0.00700476
-0.00447558
-0.000870484
0.00108668
0.00545927
0.00841731
0.00979834
0.0088099
0.00707548
0.00472084
0.00158523
-0.00135485
-0.00383404
-0.00563706
-0.00727818
-0.00834082
-0.00752185
-0.00502551
-0.000996718
0.0013424
0.00646249
0.0101592
0.0119551
0.0106537
0.00850334
0.00571423
0.00173021
-0.00201582
-0.00534128
-0.00771982
-0.00980001
-0.010934
-0.00961069
-0.00631089
-0.00130163
0.00140171
0.00690237
0.0108571
0.0127249
0.0112071
0.00886911
0.00622697
0.00187004
-0.00285253
-0.00751256
-0.0106235
-0.0132604
-0.0146589
-0.0125125
-0.00796775
-0.00165059
0.0018749
0.00935528
0.0147423
0.0170213
0.0146093
0.011158
0.00833355
0.00249207
-0.00344231
-0.0094369
-0.0134466
-0.0167529
-0.0186382
-0.0157961
-0.0100808
-0.00209226
0.0023515
0.0117587
0.0183579
0.0211745
0.0180743
0.0134818
0.010292
0.00339331
-0.00340551
-0.00948298
-0.0137057
-0.0171583
-0.0192678
-0.0169495
-0.0113397
-0.0023281
0.00267341
0.0127298
0.0190247
0.0217651
0.0187588
0.0141435
0.0105361
0.00343386
-0.00419966
-0.0114883
-0.0172011
-0.0218216
-0.0247079
-0.0214159
-0.0141331
-0.00297929
0.00348608
0.0164739
0.0247942
0.0276391
0.0243772
0.0188514
0.0132852
0.00433035
-0.00528029
-0.0143674
-0.0194579
-0.0245947
-0.027399
-0.024185
-0.0149613
-0.00309666
0.00458865
0.0218655
0.0340106
0.0385453
0.0333609
0.0257321
0.0173984
0.00585769
-0.00634975
-0.0181256
-0.0254776
-0.0326445
-0.0369418
-0.0320344
-0.0202782
-0.00421864
0.00556339
0.0263264
0.041096
0.047844
0.0415697
0.0321253
0.0217812
0.00754134
-0.00758223
-0.0222557
-0.0325435
-0.0418391
-0.048085
-0.0413339
-0.0263434
-0.00548732
0.00563822
0.0267067
0.0420925
0.0488583
0.042432
0.0329026
0.0221913
0.00775242
-0.00766184
-0.0225163
-0.0330332
-0.0424436
-0.0487515
-0.0421922
-0.026587