# vtk DataFile Version 3.0
Grid data
ASCII
DATASET STRUCTURED_POINTS
DIMENSIONS 16 128 1
ORIGIN 0 0 0
SPACING 0.015625 0.0078125 1
POINT_DATA 2048
SCALARS rho double
LOOKUP_TABLE default
0.995167
0.995152
0.995183
0.995252
0.994983
0.994487
0.994368
0.994279
0.99426
0.994298
0.994412
0.99489
0.995128
0.99503
0.995013
0.995031
0.988461
0.988486
0.988532
0.988555
0.988355
0.987448
0.987309
0.987136
0.98709
0.987186
0.987444
0.98829
0.988392
0.988343
0.988317
0.988317
0.978881
0.978919
0.978855
0.978657
0.978865
0.979125
0.978566
0.978565
0.978593
0.978648
0.979109
0.97907
0.978831
0.979089
0.979141
0.979095
0.973035
0.973038
0.972999
0.972889
0.973324
0.976306
0.977232
0.977305
0.977354
0.97738
0.976666
0.973666
0.972997
0.973154
0.973187
0.97317
0.972029
0.97203
0.972002
0.971895
0.972029
0.971751
0.97204
0.972207
0.972242
0.972156
0.971831
0.97194
0.971998
0.972171
0.972197
0.97218
0.96949
0.969479
0.969489
0.96948
0.969348
0.969094
0.969383
0.969506
0.969521
0.969396
0.969104
0.969201
0.969457
0.969547
0.969547
0.969548
0.967164
0.967142
0.967198
0.967352
0.96762
0.968354
0.96881
0.968917
0.968929
0.968777
0.968369
0.96768
0.967353
0.967184
0.967135
0.967135
0.966021
0.966017
0.966159
0.966375
0.967003
0.967647
0.968013
0.968105
0.968111
0.968011
0.967674
0.96708
0.966397
0.966037
0.965959
0.965986
0.966206
0.96618
0.966298
0.966547
0.967002
0.967479
0.96778
0.967872
0.967884
0.967825
0.967559
0.967131
0.966665
0.966342
0.966244
0.966276
0.966397
0.966358
0.966436
0.966646
0.967019
0.967347
0.967561
0.967651
0.967661
0.967624
0.967447
0.96714
0.966766
0.966542
0.966456
0.966499
0.967213
0.967163
0.967153
0.967251
0.967471
0.967713
0.967857
0.967906
0.967926
0.967907
0.967832
0.967609
0.96737
0.967257
0.967257
0.967326
0.968166
0.968127
0.968119
0.96811
0.968103
0.968101
0.968069
0.968038
0.968079
0.968158
0.968224
0.968214
0.968163
0.968143
0.968162
0.96821
0.968829
0.968773
0.968748
0.968615
0.96854
0.968428
0.968294
0.968201
0.968213
0.96831
0.96845
0.968586
0.96868
0.96873
0.968701
0.968736
0.968801
0.968742
0.968768
0.968724
0.968642
0.968519
0.968346
0.968203
0.96818
0.968277
0.968423
0.968561
0.968654
0.968709
0.968676
0.968718
0.969014
0.968922
0.96891
0.968823
0.968695
0.968521
0.968312
0.968146
0.968106
0.968217
0.968414
0.968608
0.968764
0.968876
0.968875
0.968947
0.969305
0.969183
0.969098
0.968913
0.968697
0.968459
0.968222
0.968064
0.968049
0.968184
0.968418
0.968668
0.968901
0.969072
0.969117
0.969225
0.969581
0.969439
0.96928
0.969008
0.968698
0.968406
0.968142
0.967986
0.967999
0.968173
0.968439
0.968697
0.968936
0.969186
0.969354
0.96949
0.969728
0.969579
0.969376
0.96908
0.96876
0.968421
0.968119
0.967945
0.967964
0.968164
0.968458
0.968763
0.969074
0.969383
0.969604
0.969761
0.970006
0.96985
0.969621
0.969273
0.968889
0.968497
0.96815
0.967945
0.967952
0.968157
0.96848
0.968839
0.969215
0.969572
0.969821
0.969988
0.970228
0.970072
0.96984
0.96947
0.969035
0.96858
0.968178
0.967936
0.967921
0.968119
0.968462
0.968862
0.969281
0.969678
0.969946
0.970116
0.970237
0.970082
0.969866
0.969494
0.969045
0.968569
0.968135
0.967855
0.967797
0.967982
0.96836
0.968813
0.969263
0.969696
0.96998
0.970155
0.970035
0.969881
0.969682
0.969321
0.968871
0.968384
0.967918
0.967618
0.967577
0.967781
0.968197
0.968703
0.969204
0.969587
0.969827
0.969996
0.969787
0.969632
0.969426
0.969055
0.968601
0.968097
0.967593
0.967302
0.967346
0.96759
0.968009
0.968517
0.969008
0.969388
0.969576
0.969736
0.969557
0.969395
0.969163
0.968776
0.968301
0.967794
0.967297
0.967063
0.96713
0.96739
0.967822
0.968303
0.968754
0.969095
0.969248
0.969397
0.969449
0.969262
0.968966
0.968519
0.968009
0.967544
0.967241
0.967042
0.966944
0.967191
0.96763
0.968084
0.968521
0.96885
0.969012
0.969155
0.969447
0.96923
0.968872
0.968323
0.967756
0.967275
0.96693
0.966736
0.966762
0.96704
0.967472
0.967935
0.96834
0.968734
0.968972
0.969127
0.969453
0.969196
0.968762
0.968221
0.967568
0.966992
0.966553
0.96632
0.966351
0.966644
0.967108
0.967638
0.968219
0.968702
0.969064
0.96926
0.969334
0.969063
0.968611
0.967986
0.967312
0.966681
0.966154
0.96586
0.965824
0.966099
0.966613
0.967255
0.967972
0.968627
0.969106
0.969361
0.969009
0.968727
0.968275
0.967687
0.96703
0.966394
0.965825
0.96547
0.965406
0.965658
0.966178
0.966876
0.967671
0.968412
0.968969
0.969275
0.96869
0.96841
0.967975
0.96741
0.96677
0.966154
0.965597
0.965226
0.965155
0.965389
0.965902
0.966597
0.967389
0.968109
0.968673
0.969004
0.968427
0.968155
0.967726
0.967159
0.966509
0.965913
0.965406
0.965081
0.964997
0.965246
0.965743
0.96638
0.96713
0.967827
0.968373
0.968708
0.968197
0.967936
0.967499
0.966908
0.966232
0.965601
0.965097
0.964832
0.964864
0.965145
0.965598
0.966186
0.966906
0.967603
0.968144
0.968477
0.967946
0.967697
0.967256
0.966646
0.965933
0.965264
0.964746
0.964505
0.964598
0.964914
0.965435
0.966091
0.966784
0.967405
0.967933
0.968257
0.967592
0.967352
0.966897
0.966255
0.965509
0.964816
0.964309
0.964096
0.964185
0.964529
0.965088
0.965767
0.966502
0.967194
0.967719
0.968019
0.967129
0.966902
0.966458
0.965824
0.965102
0.96444
0.963953
0.963722
0.963774
0.964115
0.964692
0.965371
0.96612
0.966757
0.967198
0.967454
0.966628
0.966422
0.966015
0.965455
0.96482
0.964241
0.963814
0.963568
0.963576
0.963865
0.964392
0.965056
0.965704
0.966225
0.966551
0.966744
0.966132
0.965956
0.965611
0.965149
0.964622
0.964169
0.963787
0.963556
0.96355
0.963797
0.96424
0.964786
0.965313
0.965715
0.965951
0.966101
0.96564
0.9655
0.965258
0.964853
0.9644
0.963951
0.963594
0.96341
0.963429
0.963667
0.96407
0.964536
0.965013
0.965396
0.965529
0.965662
0.965206
0.965067
0.964845
0.964478
0.964006
0.963503
0.963127
0.962967
0.96303
0.963277
0.963681
0.964173
0.964584
0.964968
0.965182
0.965298
0.964956
0.964799
0.964497
0.964068
0.963519
0.963005
0.962599
0.962383
0.962447
0.962726
0.963161
0.963663
0.964154
0.964482
0.964771
0.964935
0.964929
0.964736
0.964297
0.963772
0.963274
0.962792
0.962405
0.962153
0.962187
0.962467
0.962862
0.963278
0.96369
0.964006
0.964212
0.964339
0.964795
0.964588
0.964186
0.963673
0.963284
0.963046
0.962937
0.962755
0.962707
0.962848
0.962982
0.963198
0.963429
0.963647
0.963725
0.963808
0.964388
0.964207
0.963926
0.963557
0.963255
0.963146
0.963163
0.963056
0.962978
0.963008
0.963012
0.963132
0.96335
0.963581
0.96367
0.963746
0.963866
0.963704
0.96351
0.963213
0.962892
0.962622
0.962409
0.962339
0.962397
0.962468
0.962643
0.962846
0.963267
0.963744
0.964229
0.964494
0.963796
0.963586
0.9633
0.962832
0.96232
0.961898
0.961604
0.961512
0.961599
0.96169
0.961982
0.962328
0.962987
0.963753
0.964554
0.965007
0.964785
0.964391
0.963677
0.962867
0.962366
0.961982
0.961721
0.961514
0.961414
0.961485
0.961921
0.962232
0.962812
0.963575
0.96417
0.964556
0.966039
0.965514
0.964611
0.963463
0.96261
0.962185
0.961896
0.961587
0.96147
0.961545
0.961877
0.962085
0.962783
0.963551
0.964087
0.964427
0.966053
0.965545
0.964809
0.963932
0.963275
0.962839
0.96241
0.962039
0.962065
0.962207
0.962659
0.962754
0.963424
0.964237
0.964671
0.96498
0.964524
0.964105
0.963802
0.963547
0.963188
0.962786
0.9623
0.96194
0.962075
0.962297
0.962894
0.962898
0.963793
0.965053
0.965896
0.966377
0.964324
0.963806
0.963474
0.962664
0.961556
0.960788
0.960305
0.960007
0.960083
0.960212
0.961077
0.961534
0.963179
0.96497
0.966309
0.967191
0.967192
0.966225
0.964577
0.962679
0.961104
0.960132
0.95946
0.959157
0.959377
0.959351
0.960224
0.961007
0.962798
0.964892
0.966593
0.967621
0.970291
0.96893
0.966567
0.964379
0.962939
0.962252
0.961372
0.960936
0.961073
0.960958
0.961697
0.96217
0.963553
0.965403
0.966809
0.967759
0.971143
0.969943
0.967899
0.96553
0.963526
0.963044
0.961694
0.961015
0.961238
0.961397
0.962184
0.962621
0.964257
0.967286
0.969402
0.970395
0.977061
0.975223
0.970859
0.96487
0.960908
0.959785
0.957778
0.956656
0.957055
0.958044
0.960378
0.961143
0.965644
0.971446
0.976666
0.978656
0.986227
0.983653
0.976205
0.96627
0.959799
0.958406
0.955624
0.953982
0.954553
0.956562
0.959778
0.961011
0.968106
0.977224
0.98517
0.988476
0.992999
0.989951
0.981056
0.969873
0.96266
0.961572
0.957919
0.95573
0.956045
0.95828
0.962089
0.963396
0.971428
0.983861
0.98757
0.991928
1.01628
1.01156
0.997286
0.979334
0.966542
0.964068
0.958341
0.954999
0.955531
0.958497
0.962957
0.964511
0.97431
0.991128
1.00866
1.01436
1.05497
1.04803
1.02301
0.992482
0.970422
0.964245
0.954085
0.949483
0.950539
0.954523
0.962466
0.966317
0.984785
1.01603
1.0454
1.05339
1.07924
1.06989
1.03595
0.998584
0.982852
0.965071
0.95059
0.946286
0.948173
0.951971
0.964188
0.972504
1.00043
1.0468
1.06343
1.07568
1.1752
1.15855
1.09589
1.02721
1.00343
0.971692
0.951704
0.947435
0.949427
0.953155
0.968633
0.992508
1.00602
1.06276
1.14454
1.1669
1.31397
1.28569
1.17935
1.06442
1.02133
0.977071
0.950235
0.94628
0.948617
0.953766
0.975958
1.01088
1.03708
1.1354
1.27473
1.30958
1.38908
1.35278
1.22298
1.08268
1.03199
0.97938
0.94696
0.941073
0.944498
0.952583
0.983775
1.01264
1.11795
1.2614
1.359
1.3884
1.63081
1.57593
1.38645
1.16554
1.03742
0.987534
0.950825
0.939671
0.942689
0.953253
0.988196
1.04123
1.21118
1.41297
1.58329
1.63294
1.82624
1.76407
1.55187
1.2711
1.06994
0.990668
0.960171
0.943007
0.942734
0.959314
0.987358
1.08354
1.23566
1.53985
1.76883
1.83071
1.89219
1.83497
1.62301
1.35357
1.12884
0.999225
0.962093
0.941226
0.938224
0.957272
0.993457
1.12408
1.34125
1.63131
1.83736
1.89001
1.89448
1.83691
1.63943
1.38579
1.15333
1.00654
0.961585
0.933935
0.929639
0.953708
1.00217
1.16144
1.39971
1.66316
1.83987
1.89336
1.94592
1.88146
1.66171
1.38647
1.14868
1.03775
0.965802
0.929516
0.926615
0.957436
1.01159
1.18208
1.41228
1.67128
1.88205
1.94307
1.97756
1.90797
1.67032
1.37963
1.1403
1.06199
0.976751
0.93061
0.928721
0.962054
1.01502
1.18385
1.42082
1.68595
1.90497
1.97006
1.98159
1.90933
1.66835
1.37369
1.13804
1.06444
0.979355
0.929952
0.926551
0.958177
1.01047
1.17829
1.4192
1.68938
1.9117
1.97918
1.99649
1.92118
1.67131
1.37277
1.13571
1.06205
0.97486
0.923348
0.920676
0.9514
1.00277
1.17065
1.41582
1.69136
1.92201
1.99284
2.00765
1.93418
1.68034
1.37499
1.13551
1.06056
0.972391
0.919336
0.917382
0.947077
0.997719
1.16206
1.40938
1.69387
1.93395
2.00589
2.01177
1.93702
1.6846
1.37698
1.13446
1.05818
0.973005
0.919491
0.919479
0.946188
0.996326
1.15782
1.40866
1.70679
1.94698
2.01451
2.01261
1.94723
1.70601
1.38575
1.13419
1.05295
0.969287
0.919772
0.925443
0.94138
0.994701
1.16371
1.42854
1.73249
1.95603
2.01515
2.0128
1.95789
1.74288
1.42243
1.14593
1.04816
0.96138
0.916817
0.927448
0.939428
0.988184
1.17324
1.45496
1.75599
1.95949
2.01194
2.01256
1.96598
1.77314
1.46477
1.18098
1.02856
0.960266
0.916455
0.929092
0.939965
0.985241
1.18323
1.47502
1.77407
1.96392
2.00983
2.01196
1.97022
1.78708
1.48303
1.19933
1.01237
0.953433
0.916651
0.928964
0.9405
0.987908
1.19
1.4815
1.78067
1.96782
2.01208
2.01605
1.97256
1.78688
1.48498
1.19931
1.00322
0.945112
0.913644
0.924294
0.937617
0.9909
1.19102
1.48114
1.78189
1.97011
2.01564
2.02476
1.98379
1.80663
1.49124
1.19425
0.99849
0.937224
0.907301
0.915847
0.930355
0.990642
1.18735
1.48448
1.79967
1.98128
2.02393
2.03324
1.9981
1.82707
1.49641
1.18798
0.989722
0.928095
0.898714
0.907125
0.921699
0.985411
1.18232
1.48833
1.81918
1.99463
2.03158
2.03842
2.00572
1.83499
1.50112
1.18525
0.983304
0.919219
0.890132
0.898605
0.914706
0.979915
1.17908
1.49143
1.82921
2.00396
2.0386
2.04437
2.02657
1.87886
1.52241
1.18735
0.979701
0.91574
0.886569
0.89633
0.91244
0.975908
1.18234
1.52105
1.87434
2.02521
2.04325
2.0438
2.04054
1.9321
1.60243
1.22817
0.984712
0.914066
0.88286
0.893286
0.910533
0.982291
1.23317
1.60163
1.9295
2.03875
2.04252
2.03965
2.04147
1.9737
1.71887
1.31835
1.01276
0.914278
0.879924
0.889259
0.911942
1.02269
1.34029
1.70433
1.96616
2.0415
2.03927
2.03703
2.03868
2.00286
1.82526
1.44705
1.11027
0.922192
0.867267
0.870597
0.932492
1.15733
1.46714
1.77462
1.98673
2.04452
2.04035
2.04205
2.04444
2.00466
1.8407
1.59531
1.29128
1.04316
0.944972
0.96678
1.10569
1.38665
1.50118
1.77431
1.98771
2.04858
2.04513
2.04916
2.05361
2.02647
1.92731
1.75462
1.5232
1.28754
1.16062
1.20753
1.36775
1.57738
1.64676
1.85128
2.01155
2.0564
2.05195
2.05025
2.05667
2.03856
2.00457
1.88192
1.69148
1.50531
1.39858
1.44586
1.59535
1.63891
1.80723
1.94876
2.03607
2.06457
2.05924
2.05749
2.06339
2.04865
2.02781
1.95505
1.76276
1.59239
1.50879
1.52407
1.63308
1.76973
1.92474
1.99717
2.04934
2.06978
2.06441
2.05792
2.06362
2.04911
2.03095
1.96307
1.86217
1.75225
1.69121
1.69789
1.77464
1.88389
1.92873
2.00261
2.05041
2.06966
2.06451
2.06618
2.07047
2.05875
2.03963
1.99984
1.95174
1.89968
1.86593
1.86962
1.91256
1.97335
1.97775
2.02204
2.05814
2.07349
2.06943
2.07541
2.07854
2.06792
2.04895
2.0218
1.99129
1.9603
1.94171
1.94398
1.96929
2.00384
2.01025
2.04152
2.06776
2.07906
2.07594
2.08288
2.08525
2.07523
2.05606
2.02551
1.99675
1.96988
1.95487
1.95703
1.97762
2.00926
2.02105
2.05409
2.07608
2.08495
2.08264
2.08529
2.08581
2.07575
2.05642
2.03446
2.0118
1.99287
1.98295
1.9847
1.99752
2.01726
2.03661
2.05747
2.07697
2.08657
2.08652
2.09078
2.0906
2.08125
2.06377
2.04566
2.0276
2.0134
2.00732
2.0086
2.01738
2.02923
2.04887
2.0653
2.08222
2.09163
2.09209
2.09556
2.0953
2.08712
2.07257
2.0573
2.04277
2.03128
2.02601
2.02758
2.03399
2.04001
2.05322
2.0718
2.0878
2.09635
2.09681
2.09849
2.09861
2.09222
2.08054
2.06777
2.05556
2.04665
2.04309
2.04316
2.04062
2.05056
2.06376
2.07932
2.09265
2.09968
2.09947
2.10154
2.10189
2.09648
2.08667
2.0739
2.06112
2.05077
2.04464
2.04434
2.0514
2.06174
2.07379
2.08624
2.09657
2.10239
2.10191
2.10329
2.10376
2.09874
2.09025
2.08054
2.07074
2.06297
2.05816
2.05765
2.06333
2.07168
2.08104
2.09006
2.09845
2.10347
2.10294
2.10422
2.10482
2.10071
2.09368
2.08562
2.0788
2.07354
2.07075
2.07071
2.07394
2.07955
2.08606
2.09352
2.10018
2.1042
2.10362
2.10427
2.10498
2.10206
2.09679
2.09041
2.0856
2.0818
2.08042
2.08085
2.08239
2.08618
2.09062
2.09637
2.10143
2.10446
2.10382
2.10394
2.10487
2.1032
2.09965
2.09492
2.09127
2.08807
2.08612
2.08624
2.08844
2.09131
2.09458
2.09902
2.10266
2.10457
2.10368
2.10376
2.10471
2.10394
2.10172
2.09853
2.09576
2.0936
2.0924
2.09237
2.09344
2.09528
2.09794
2.10126
2.10361
2.10444
2.10346
2.10395
2.10472
2.10428
2.10259
2.10023
2.09842
2.09697
2.09623
2.09622
2.0967
2.09799
2.09997
2.10234
2.10388
2.10428
2.10345
2.10446
2.105
2.10443
2.10292
2.10095
2.09951
2.09859
2.09811
2.09801
2.09824
2.09915
2.10053
2.10239
2.10377
2.10445
2.10387
2.10489
2.10533
2.10444
2.10283
2.10103
2.09978
2.09905
2.09863
2.0985
2.09874
2.09947
2.10059
2.10218
2.10389
2.10525
2.10482
2.10606
2.10642
2.10528
2.10335
2.10119
2.09989
2.09931
2.0991
2.09894
2.09903
2.09964
2.10093
2.10311
2.1053
2.10667
2.10634
2.10808
2.10826
2.10762
2.10525
2.10224
2.10051
2.0999
2.09983
2.09975
2.09976
2.10049
2.10236
2.10533
2.10776
2.10888
2.10867
2.11091
2.11084
2.10915
2.10656
2.1041
2.10201
2.10084
2.10064
2.10072
2.10098
2.10234
2.1046
2.1071
2.10989
2.1117
2.11181
2.1146
2.11464
2.11311
2.11043
2.10751
2.10441
2.10223
2.10159
2.1018
2.1026
2.10493
2.10825
2.11154
2.11424
2.11575
2.11561
2.11786
2.11821
2.11769
2.11548
2.11163
2.10752
2.10458
2.10289
2.10301
2.1049
2.10802
2.11237
2.11646
2.11878
2.11941
2.11908
2.11981
2.11953
2.11807
2.11584
2.11336
2.11101
2.10847
2.10699
2.10707
2.10873
2.11141
2.11399
2.11687
2.11933
2.12079
2.12111
2.12192
2.12198
2.12128
2.11977
2.11733
2.11536
2.11407
2.11347
2.11353
2.11424
2.11569
2.11787
2.12055
2.1221
2.12284
2.12286
2.12423
2.12488
2.12549
2.12494
2.12203
2.12116
2.12146
2.1219
2.12194
2.1216
2.12138
2.12248
2.12504
2.12557
2.12507
2.1243
2.12646
2.12717
2.12635
2.12544
2.1264
2.12823
2.1301
2.1313
2.13133
2.13017
2.12827
2.12619
2.12528
2.12592
2.12635
2.12569
2.12801
2.1292
2.13022
2.13001
2.13273
2.13585
2.13855
2.14009
2.14009
2.13854
2.13574
2.13236
2.1294
2.12947
2.12841
2.12697
2.13068
2.13194
2.13356
2.1354
2.14019
2.143
2.14516
2.14644
2.1464
2.14504
2.1428
2.13984
2.13495
2.13301
2.13104
2.12975
2.13274
2.13349
2.13703
2.14069
2.14469
2.14694
2.14811
2.149
2.14894
2.14792
2.14664
2.14438
2.14034
2.13666
2.13315
2.13244
2.1379
2.13821
2.14203
2.14509
2.14554
2.14641
2.14696
2.14765
2.14759
2.14679
2.14614
2.14518
2.14486
2.14196
2.13837
2.13811
2.1462
2.14474
2.14342
2.14475
2.14593
2.14512
2.14406
2.14365
2.14361
2.14398
2.14496
2.14563
2.14466
2.1433
2.14474
2.14623
2.16194
2.16023
2.15577
2.15498
2.14982
2.14677
2.14405
2.14078
2.14076
2.14399
2.14674
2.14983
2.15495
2.15575
2.16016
2.16185
2.18036
2.17838
2.17165
2.16838
2.15853
2.15166
2.14729
2.14182
2.14181
2.14726
2.15167
2.15856
2.16834
2.17156
2.17829
2.18024
2.19403
2.19171
2.18171
2.1695
2.15833
2.15023
2.14272
2.13871
2.1387
2.1427
2.15022
2.15828
2.16946
2.18164
2.19165
2.19396
2.19538
2.19433
2.19279
2.18539
2.1787
2.16737
2.15864
2.1579
2.1579
2.1586
2.1673
2.17863
2.18541
2.19278
2.19431
2.19531
2.1802
2.18431
2.19151
2.20526
2.21262
2.21822
2.21383
2.20854
2.20855
2.21388
2.21829
2.21273
2.2053
2.19161
2.18443
2.18039
2.22294
2.23013
2.25515
2.28158
2.30445
2.31761
2.32946
2.33725
2.33725
2.32946
2.31768
2.30457
2.28174
2.25544
2.23048
2.22339
2.35317
2.36204
2.3883
2.42493
2.47659
2.51493
2.53124
2.54092
2.54094
2.53131
2.51503
2.47674
2.42515
2.38851
2.36247
2.35371
2.70847
2.7084
2.71619
2.71323
2.72135
2.73242
2.72668
2.71688
2.71689
2.72668
2.7324
2.72154
2.71314
2.71626
2.7084
2.70905
2.39915
2.39513
2.38727
2.38209
2.34104
2.29011
2.26656
2.25348
2.25346
2.26654
2.29007
2.34064
2.38205
2.38729
2.39503
2.39941
SCALARS u double
LOOKUP_TABLE default
-2.75307e-05
-6.97746e-05
-0.000108756
-0.00012412
-8.55699e-05
-5.71142e-05
-5.17317e-05
-3.25317e-05
-1.74098e-05
-7.08651e-06
-1.93765e-06
7.76617e-06
1.60865e-05
4.26846e-06
9.2134e-07
-2.36141e-06
-4.13538e-05
-0.000197723
-0.00029672
-0.000390541
-0.000353605
-0.000228903
-0.000119687
-3.17912e-05
3.94011e-05
0.000102608
0.000193903
0.000282202
0.000288898
0.000209977
0.000163133
3.949e-05
-4.53691e-05
-0.000229177
-0.000391672
-0.00043619
-0.000363656
-0.000240545
-0.000112863
-2.4146e-05
5.81495e-05
0.00014656
0.00027298
0.000364869
0.000397551
0.000351384
0.000227571
5.01554e-05
-3.24465e-05
-0.000137534
-0.000230875
-0.00027531
-0.000241024
-0.000201705
-0.000124193
-4.91226e-05
3.16062e-05
0.000112196
0.000203945
0.000263427
0.000289401
0.000248272
0.00015662
3.86461e-05
-1.64583e-05
-3.86403e-05
-7.87852e-05
-7.08905e-05
-2.95564e-05
-1.31612e-05
-2.46511e-05
-3.91102e-05
-3.30794e-05
-2.87829e-05
6.52769e-06
5.263e-05
0.000125111
0.000107467
6.7826e-05
2.05064e-05
1.09921e-05
0.000104318
0.000118191
0.000136641
0.00011887
5.36883e-05
1.79553e-05
-4.06916e-05
-9.44492e-05
-0.000141079
-0.000146943
-9.39267e-05
-4.21228e-05
-4.12811e-05
-5.38165e-05
-1.65721e-06
2.51467e-05
0.000147623
0.000217677
0.00030336
0.000352162
0.00029979
0.000175977
2.1244e-05
-0.000137203
-0.00027724
-0.000360263
-0.000350339
-0.00024732
-0.000137316
-0.000107209
-1.93229e-05
4.30846e-05
0.000257468
0.000379851
0.000490038
0.000474584
0.000393254
0.00025889
6.80446e-05
-0.000142642
-0.000333069
-0.000452647
-0.000511984
-0.0004776
-0.000325889
-0.000228416
-3.698e-05
4.74132e-05
0.000339457
0.000533025
0.00066536
0.000652808
0.00058813
0.000408886
0.000146135
-0.000132683
-0.000385308
-0.000580866
-0.00070894
-0.000706168
-0.000549376
-0.000331571
-4.10359e-05
5.88064e-05
0.000395382
0.000624782
0.000799629
0.000806342
0.000678511
0.000453067
0.000161519
-0.000158902
-0.000467999
-0.000708759
-0.000801778
-0.000777255
-0.000654517
-0.000411549
-5.56164e-05
7.09163e-05
0.000405175
0.000632134
0.000832869
0.000902648
0.000780703
0.000525164
0.000173365
-0.000194988
-0.000531541
-0.000774321
-0.000900321
-0.00086055
-0.000660093
-0.000425712
-7.31868e-05
8.59309e-05
0.000462442
0.000680559
0.000902095
0.000952335
0.000839142
0.000565572
0.000177016
-0.000236728
-0.00059837
-0.00084596
-0.000966034
-0.000950636
-0.000732769
-0.000497526
-9.19755e-05
0.000101085
0.000542863
0.000773668
0.00100746
0.0010388
0.000906
0.000610677
0.000182792
-0.000275433
-0.000675491
-0.000940092
-0.00106198
-0.00104878
-0.000797029
-0.000571747
-0.000108041
0.000111444
0.00062236
0.000897861
0.00112227
0.00113826
0.000980962
0.000657697
0.000197222
-0.000294049
-0.00072965
-0.00102202
-0.00115506
-0.00113148
-0.000875048
-0.000613116
-0.000115374
0.000114393
0.000679399
0.00100303
0.00121232
0.0012302
0.00105195
0.000703463
0.000223869
-0.000286023
-0.000750821
-0.00107343
-0.00122406
-0.00119629
-0.000956623
-0.000651647
-0.000115732
0.000112543
0.000701744
0.00103746
0.00125206
0.00127246
0.00108466
0.000729358
0.00025125
-0.000260133
-0.000738807
-0.00108479
-0.00125788
-0.00123261
-0.00100136
-0.000674986
-0.000111526
0.000107687
0.000699663
0.00103106
0.00124201
0.00125247
0.00106543
0.000726789
0.000266695
-0.00023299
-0.000710069
-0.00106475
-0.00125363
-0.00123641
-0.00101228
-0.000681898
-0.000104068
0.000102511
0.000683893
0.000995464
0.00119739
0.00120289
0.00101982
0.000696922
0.000259557
-0.000217783
-0.000673156
-0.00102037
-0.00121445
-0.00120115
-0.000989622
-0.000674708
-9.81351e-05
9.84304e-05
0.00066825
0.000960876
0.00115258
0.00115546
0.000967296
0.000649321
0.000231538
-0.000214589
-0.000637972
-0.000968718
-0.00115454
-0.00114251
-0.000947454
-0.000653756
-9.31717e-05
9.59799e-05
0.000658474
0.000949553
0.00113029
0.00112417
0.000929207
0.00060601
0.00020249
-0.000211964
-0.000620271
-0.000922067
-0.00109868
-0.00110093
-0.000923084
-0.000638653
-9.11117e-05
9.56359e-05
0.000652348
0.000945962
0.00112242
0.00111181
0.000916233
0.000598213
0.000203656
-0.000195558
-0.000584512
-0.000885655
-0.00107895
-0.00110358
-0.00093657
-0.00064956
-9.38098e-05
9.55848e-05
0.000646418
0.000939285
0.00111238
0.00111031
0.000932661
0.000631776
0.000242331
-0.000161439
-0.00055366
-0.000876505
-0.0010934
-0.0011258
-0.00096581
-0.000673021
-9.8784e-05
9.39842e-05
0.000636361
0.00091869
0.00109084
0.00110459
0.000947908
0.000665133
0.000281753
-0.000126979
-0.000534872
-0.000871835
-0.0010987
-0.00113399
-0.000983698
-0.000691975
-0.000103087
8.87263e-05
0.000615654
0.000880212
0.001046
0.00107199
0.000923248
0.0006562
0.000288833
-0.00010736
-0.000510885
-0.00083926
-0.00105595
-0.00108666
-0.000950521
-0.000672844
-0.000101338
7.99407e-05
0.000589209
0.000841876
0.000995418
0.00101057
0.000861642
0.000600998
0.000250252
-0.000115164
-0.000479585
-0.00076382
-0.000945478
-0.000970878
-0.000845888
-0.000602645
-8.97509e-05
7.08316e-05
0.000565363
0.000822799
0.000967752
0.000956668
0.000779653
0.00051479
0.00018835
-0.000133234
-0.000441279
-0.000676769
-0.00082458
-0.000826507
-0.000713797
-0.000511344
-7.11545e-05
6.38017e-05
0.00056435
0.000829305
0.00096022
0.000934973
0.000733638
0.000455939
0.000141347
-0.000147012
-0.000416569
-0.000621185
-0.000749117
-0.000729552
-0.000615217
-0.000436825
-5.08447e-05
6.07832e-05
0.000574655
0.000864627
0.000989121
0.000957405
0.000753152
0.00046221
0.000137612
-0.000146447
-0.000414847
-0.000626501
-0.000754993
-0.000731834
-0.000614084
-0.0004028
-3.61883e-05
6.12496e-05
0.000592444
0.000893512
0.00102331
0.00100801
0.000811802
0.000523676
0.000191816
-0.000121598
-0.000432247
-0.000686563
-0.000844481
-0.000822441
-0.000688277
-0.000424474
-2.96798e-05
6.18492e-05
0.000594261
0.000891822
0.00102813
0.0010348
0.000866057
0.000600233
0.000266943
-7.86051e-05
-0.00044515
-0.000750258
-0.000940576
-0.000924576
-0.000781692
-0.000475033
-3.05225e-05
5.91878e-05
0.000566072
0.000846232
0.000983979
0.00101392
0.000875878
0.000638959
0.000318221
-3.80955e-05
-0.000431402
-0.000762675
-0.000972556
-0.000966452
-0.000831921
-0.000515695
-3.67796e-05
5.16586e-05
0.000511216
0.000772932
0.000907869
0.000951053
0.000835503
0.000617528
0.000316699
-2.04403e-05
-0.000392798
-0.000710406
-0.0009179
-0.000929336
-0.000819807
-0.000526425
-4.19074e-05
4.13842e-05
0.000443015
0.000696153
0.000837258
0.000885647
0.000775722
0.000558138
0.000269301
-3.03561e-05
-0.000356779
-0.000639566
-0.000835019
-0.000866434
-0.000782248
-0.000515649
-4.41905e-05
3.32362e-05
0.000388842
0.000647213
0.000804028
0.000853928
0.000731626
0.00049879
0.000206999
-6.1176e-05
-0.000349184
-0.000603099
-0.000791808
-0.000842797
-0.000771902
-0.000514532
-4.78239e-05
3.11801e-05
0.000368608
0.000638387
0.000809646
0.000853841
0.000717335
0.000471275
0.000165196
-9.88905e-05
-0.000373864
-0.000616907
-0.000813017
-0.00087688
-0.000795425
-0.000532918
-5.61956e-05
3.83825e-05
0.000402246
0.000674354
0.000835009
0.000861386
0.000712407
0.000465229
0.000156961
-0.000125918
-0.000411134
-0.00066722
-0.00086312
-0.000924064
-0.000822788
-0.000544757
-6.58507e-05
5.02861e-05
0.000443459
0.00070364
0.000849121
0.000852702
0.000696755
0.000455509
0.000164129
-0.000129367
-0.00044007
-0.000715303
-0.000916289
-0.000967969
-0.000824315
-0.00053924
-7.81696e-05
5.85565e-05
0.000435233
0.00068181
0.000821222
0.000824613
0.000674531
0.000438343
0.000162933
-0.00012627
-0.000449716
-0.000774751
-0.000997016
-0.00101597
-0.000834809
-0.000530687
-8.71187e-05
7.87113e-05
0.000498488
0.000790153
0.00096236
0.000947763
0.000761745
0.000482658
0.000149128
-0.000146309
-0.000519346
-0.000910978
-0.00116184
-0.00117512
-0.000945754
-0.000603588
-0.000105711
0.000111518
0.000641664
0.00104381
0.00130724
0.00131025
0.00104286
0.000608184
0.000145812
-0.000197828
-0.000615673
-0.00104505
-0.00132652
-0.00137477
-0.00116704
-0.000759729
-0.00013947
0.000158219
0.000884834
0.00144465
0.00180474
0.00182319
0.00148959
0.000886301
0.000186311
-0.000270389
-0.000863437
-0.00138813
-0.00172444
-0.00180619
-0.00152178
-0.000985314
-0.000192589
0.000210574
0.00114815
0.00185531
0.00222136
0.00218517
0.00181768
0.00113125
0.000302616
-0.000302607
-0.00106261
-0.0016708
-0.00202696
-0.00211201
-0.00174833
-0.00113391
-0.000235591
0.000233364
0.0012333
0.00189139
0.0022529
0.0022081
0.00184095
0.00122986
0.000391364
-0.000378421
-0.00114882
-0.0016854
-0.00203965
-0.00211746
-0.00172782
-0.00111123
-0.000236257
0.000305528
0.0015173
0.00238344
0.00287896
0.00277483
0.00221934
0.00143437
0.000551712
-0.000385796
-0.00126202
-0.00201169
-0.00261496
-0.00280984
-0.0023069
-0.00145068
-0.000295203
0.000400471
0.00192744
0.00312688
0.0039396
0.00395496
0.00325556
0.00211521
0.000746477
-0.000590631
-0.00179246
-0.00288267
-0.00370046
-0.0040534
-0.00342606
-0.00215215
-0.000417251
0.000498833
0.0024201
0.0039521
0.00500209
0.00509495
0.00422627
0.00276103
0.000928778
-0.000664528
-0.00219364
-0.00357425
-0.00470028
-0.00526637
-0.00464183
-0.00306766
-0.000603847
0.00056462
0.00301249
0.00464571
0.00544171
0.00539655
0.00453691
0.00285229
0.00092397
-0.000976746
-0.00280313
-0.00429675
-0.00477224
-0.00533188
-0.00468257
-0.00310269
-0.000615628
0.000732897
0.00375615
0.00580335
0.00685257
0.00658377
0.0053693
0.00354972
0.00123677
-0.00114668
-0.00351412
-0.00449238
-0.00571946
-0.00655212
-0.00579486
-0.0037799
-0.000790227
0.000971319
0.00471132
0.00743988
0.00906715
0.00882947
0.00720405
0.00468813
0.00151615
-0.00158895
-0.00455755
-0.00596656
-0.0077257
-0.00882891
-0.00769332
-0.00486202
-0.00100833
0.00118258
0.00559419
0.00884736
0.0108556
0.0107495
0.00886995
0.00571789
0.00173552
-0.00183908
-0.00497958
-0.00763143
-0.00975857
-0.0113163
-0.00994044
-0.00636381