# vtk DataFile Version 3.0
Grid data
ASCII
DATASET STRUCTURED_POINTS
DIMENSIONS 30 300 1
ORIGIN 0 0 0
SPACING 0.00833333 0.00333333 1
POINT_DATA 9000
SCALARS rho double
LOOKUP_TABLE default
0.980195
0.980196
0.980197
0.98019
0.980175
0.980154
0.980128
0.980093
0.980041
0.979971
0.979887
0.979804
0.97973
0.979674
0.979642
0.979642
0.979674
0.97973
0.979804
0.979888
0.979971
0.980041
0.980092
0.980127
0.980153
0.980175
0.98019
0.980197
0.980197
0.980196
0.979227
0.979232
0.979237
0.979237
0.979227
0.979214
0.979202
0.979186
0.979154
0.979101
0.979037
0.978976
0.978928
0.978896
0.978881
0.978881
0.978896
0.978928
0.978976
0.979037
0.979101
0.979153
0.979185
0.9792
0.979212
0.979226
0.979237
0.979239
0.979234
0.97923
0.979497
0.979503
0.979514
0.979521
0.979522
0.979516
0.979507
0.97949
0.979457
0.979404
0.979338
0.979271
0.979215
0.979176
0.979156
0.979156
0.979176
0.979216
0.979272
0.979338
0.979404
0.979456
0.979488
0.979504
0.979514
0.979521
0.979522
0.979517
0.979507
0.979502
0.980391
0.980397
0.980409
0.98042
0.980423
0.980413
0.980387
0.980344
0.98028
0.9802
0.980113
0.980031
0.979966
0.979922
0.9799
0.9799
0.979922
0.979967
0.980032
0.980113
0.980198
0.980277
0.980339
0.980383
0.980409
0.980422
0.980422
0.980414
0.980404
0.980398
0.98154
0.981546
0.981558
0.98157
0.981574
0.98156
0.981523
0.981463
0.981383
0.981293
0.981203
0.981123
0.981059
0.981016
0.980994
0.980995
0.981017
0.98106
0.981123
0.981202
0.981291
0.981379
0.981457
0.981517
0.981556
0.981573
0.981573
0.981565
0.981556
0.981551
0.982604
0.982609
0.982618
0.982626
0.982625
0.982605
0.982559
0.982489
0.982402
0.982308
0.982219
0.982141
0.982081
0.98204
0.982019
0.98202
0.98204
0.982081
0.982141
0.982218
0.982305
0.982397
0.982482
0.982552
0.9826
0.982624
0.982629
0.982626
0.982619
0.982616
0.983394
0.983396
0.983399
0.983399
0.983389
0.983362
0.983314
0.983245
0.983164
0.983079
0.982999
0.98293
0.982877
0.982841
0.982824
0.982824
0.982842
0.982878
0.98293
0.982998
0.983076
0.983159
0.983239
0.983307
0.983357
0.983388
0.983402
0.983406
0.983405
0.983405
0.983812
0.983811
0.983808
0.983797
0.983776
0.983741
0.983691
0.983628
0.983557
0.983484
0.983415
0.983357
0.983312
0.983282
0.983268
0.983268
0.983283
0.983312
0.983357
0.983414
0.983481
0.983553
0.983623
0.983686
0.983737
0.983775
0.983799
0.983813
0.983819
0.983821
0.983906
0.983902
0.983893
0.983874
0.983844
0.983804
0.983756
0.9837
0.98364
0.98358
0.983525
0.983478
0.983442
0.98342
0.983409
0.983409
0.98342
0.983442
0.983477
0.983524
0.983578
0.983637
0.983696
0.983752
0.983802
0.983844
0.983875
0.983897
0.983908
0.983912
0.983782
0.983777
0.983764
0.98374
0.983706
0.983664
0.983618
0.98357
0.983521
0.983473
0.98343
0.983394
0.983367
0.983351
0.983344
0.983344
0.983351
0.983367
0.983393
0.983429
0.983472
0.983518
0.983567
0.983615
0.983662
0.983705
0.983741
0.983767
0.983781
0.983786
0.983559
0.983553
0.983538
0.983511
0.983475
0.983434
0.983393
0.983353
0.983316
0.983282
0.983251
0.983225
0.983206
0.983195
0.983191
0.983191
0.983195
0.983205
0.983224
0.98325
0.98328
0.983314
0.983352
0.983392
0.983433
0.983475
0.983512
0.98354
0.983555
0.983561
0.983322
0.983316
0.9833
0.983271
0.983235
0.983196
0.983159
0.983128
0.983102
0.983081
0.983061
0.983045
0.983035
0.983032
0.983034
0.983034
0.983032
0.983034
0.983044
0.98306
0.98308
0.983101
0.983127
0.983158
0.983195
0.983235
0.983272
0.983301
0.983317
0.983323
0.983121
0.983114
0.983097
0.983066
0.983029
0.982991
0.982959
0.982935
0.98292
0.982911
0.982903
0.9829
0.982905
0.982918
0.982929
0.982929
0.982917
0.982904
0.982899
0.982902
0.98291
0.98292
0.982935
0.982958
0.982991
0.983029
0.983067
0.983098
0.983115
0.983122
0.982968
0.98296
0.98294
0.982907
0.982867
0.982829
0.9828
0.982782
0.982777
0.982779
0.982787
0.982803
0.982833
0.982867
0.982891
0.982891
0.982867
0.982832
0.982803
0.982786
0.982778
0.982776
0.982782
0.982799
0.982829
0.982867
0.982907
0.982941
0.982961
0.98297
0.982852
0.982842
0.982818
0.98278
0.982737
0.982697
0.982669
0.982658
0.982661
0.982677
0.982705
0.982749
0.982805
0.982859
0.982893
0.982893
0.982859
0.982805
0.982748
0.982705
0.982676
0.982661
0.982657
0.982669
0.982697
0.982737
0.982781
0.982819
0.982843
0.982854
0.982753
0.982739
0.982711
0.982668
0.98262
0.982578
0.982551
0.982544
0.982556
0.982587
0.982639
0.982708
0.982784
0.982848
0.982885
0.982885
0.982849
0.982784
0.982708
0.982639
0.982587
0.982556
0.982543
0.98255
0.982578
0.98262
0.982668
0.982712
0.98274
0.982754
0.982652
0.982636
0.982603
0.982555
0.982503
0.982458
0.98243
0.982427
0.982448
0.982495
0.982565
0.98265
0.982732
0.982795
0.982829
0.982829
0.982796
0.982733
0.98265
0.982565
0.982495
0.982448
0.982426
0.98243
0.982458
0.982503
0.982556
0.982604
0.982637
0.982653
0.982544
0.982525
0.982489
0.982436
0.982379
0.98233
0.982302
0.982301
0.98233
0.982387
0.982467
0.982555
0.982634
0.982689
0.982717
0.982717
0.982689
0.982634
0.982555
0.982467
0.982387
0.982329
0.982301
0.982302
0.98233
0.982379
0.982436
0.982489
0.982526
0.982545
0.982428
0.982408
0.982368
0.982311
0.98225
0.982197
0.982167
0.982166
0.982198
0.982259
0.98234
0.982424
0.982495
0.982545
0.98257
0.98257
0.982545
0.982495
0.982424
0.98234
0.98226
0.982198
0.982166
0.982167
0.982198
0.98225
0.982311
0.982369
0.982408
0.982429
0.982312
0.982289
0.982248
0.982186
0.98212
0.982063
0.982028
0.982025
0.982055
0.982115
0.982191
0.982269
0.982336
0.982384
0.982409
0.982409
0.982384
0.982335
0.982268
0.982191
0.982115
0.982056
0.982025
0.982029
0.982063
0.982121
0.982187
0.982248
0.98229
0.982312
0.982201
0.982177
0.982132
0.982067
0.981996
0.981933
0.981892
0.981883
0.981908
0.981961
0.982031
0.982105
0.982171
0.982222
0.982249
0.982249
0.982221
0.982171
0.982105
0.982031
0.981961
0.981909
0.981884
0.981893
0.981933
0.981997
0.982068
0.982133
0.982177
0.982201
0.9821
0.982074
0.982027
0.981958
0.981881
0.981811
0.981763
0.981746
0.981763
0.981807
0.981871
0.981943
0.98201
0.982063
0.982091
0.982091
0.982062
0.98201
0.981943
0.981871
0.981808
0.981763
0.981747
0.981764
0.981812
0.981882
0.981958
0.982027
0.982074
0.9821
0.982011
0.981982
0.981932
0.981858
0.981776
0.981699
0.981643
0.981617
0.981623
0.981659
0.981717
0.981786
0.981853
0.981906
0.981936
0.981936
0.981906
0.981853
0.981786
0.981717
0.98166
0.981624
0.981617
0.981643
0.9817
0.981777
0.981859
0.981933
0.981983
0.982011
0.981933
0.981902
0.981848
0.981769
0.981681
0.981597
0.981532
0.981496
0.981492
0.981519
0.981569
0.981633
0.981698
0.981751
0.98178
0.98178
0.981751
0.981698
0.981633
0.98157
0.981519
0.981493
0.981497
0.981533
0.981597
0.981681
0.981769
0.981848
0.981902
0.981933
0.981864
0.981831
0.981773
0.981688
0.981594
0.981503
0.98143
0.981383
0.981369
0.981385
0.981427
0.981485
0.981545
0.981595
0.981624
0.981624
0.981595
0.981545
0.981485
0.981428
0.981386
0.98137
0.981384
0.98143
0.981504
0.981595
0.981689
0.981773
0.981831
0.981864
0.981801
0.981766
0.981705
0.981616
0.981515
0.981417
0.981334
0.981278
0.981252
0.981258
0.98129
0.981339
0.981393
0.981439
0.981466
0.981466
0.981439
0.981393
0.981339
0.98129
0.981258
0.981253
0.981278
0.981335
0.981417
0.981516
0.981616
0.981706
0.981767
0.981802
0.981742
0.981707
0.981644
0.981551
0.981445
0.981338
0.981246
0.981178
0.981141
0.981135
0.981156
0.981195
0.981241
0.981281
0.981305
0.981305
0.981281
0.981241
0.981195
0.981156
0.981136
0.981142
0.981179
0.981246
0.981339
0.981445
0.981552
0.981645
0.981707
0.981743
0.981686
0.981651
0.981589
0.981494
0.981382
0.981267
0.981165
0.981085
0.981036
0.981017
0.981025
0.981052
0.981088
0.981121
0.981141
0.981141
0.981121
0.981088
0.981052
0.981025
0.981018
0.981037
0.981086
0.981165
0.981268
0.981383
0.981495
0.98159
0.981651
0.981686
0.98163
0.981597
0.981537
0.981443
0.981328
0.981206
0.981093
0.981001
0.980937
0.980904
0.980898
0.980911
0.980935
0.980959
0.980974
0.980974
0.980959
0.980935
0.980911
0.980898
0.980905
0.980938
0.981001
0.981093
0.981206
0.981329
0.981443
0.981538
0.981597
0.981631
0.981575
0.981543
0.981487
0.981394
0.981279
0.981152
0.98103
0.980925
0.980847
0.980797
0.980774
0.980772
0.980782
0.980796
0.980806
0.980806
0.980796
0.980782
0.980772
0.980774
0.980798
0.980848
0.980926
0.981031
0.981153
0.98128
0.981395
0.981488
0.981544
0.981576
0.981518
0.981487
0.981435
0.981346
0.981232
0.981103
0.980974
0.980858
0.980764
0.980696
0.980654
0.980634
0.98063
0.980633
0.980637
0.980637
0.980633
0.98063
0.980634
0.980654
0.980696
0.980764
0.980858
0.980975
0.981104
0.981233
0.981346
0.981436
0.981488
0.981519
0.981458
0.981428
0.981378
0.981293
0.981183
0.981054
0.98092
0.980794
0.980684
0.980597
0.980536
0.980497
0.980477
0.98047
0.980468
0.980468
0.98047
0.980477
0.980497
0.980536
0.980598
0.980685
0.980795
0.980921
0.981054
0.981183
0.981293
0.981379
0.981429
0.981459
0.981391
0.981362
0.981315
0.981232
0.981125
0.980998
0.980863
0.980727
0.980603
0.980498
0.980416
0.980359
0.980323
0.980304
0.980295
0.980295
0.980304
0.980323
0.980359
0.980417
0.980498
0.980604
0.980728
0.980863
0.980999
0.981126
0.981233
0.981315
0.981362
0.981392
0.981315
0.981285
0.981241
0.981161
0.981058
0.980933
0.980795
0.980652
0.980515
0.980392
0.980291
0.980215
0.980163
0.980132
0.980117
0.980117
0.980132
0.980163
0.980215
0.980292
0.980393
0.980516
0.980653
0.980796
0.980933
0.981059
0.981162
0.981241
0.981286
0.981316
0.981226
0.981197
0.981155
0.981079
0.980979
0.980855
0.980715
0.980564
0.980415
0.980276
0.980157
0.980063
0.979995
0.979951
0.979929
0.979929
0.979951
0.979995
0.980063
0.980158
0.980277
0.980416
0.980565
0.980715
0.980855
0.98098
0.981079
0.981156
0.981198
0.981227
0.981124
0.981096
0.981058
0.980985
0.980888
0.980764
0.98062
0.980463
0.980302
0.980149
0.980013
0.979901
0.979816
0.97976
0.979732
0.979732
0.97976
0.979816
0.979901
0.980013
0.980149
0.980303
0.980464
0.980621
0.980765
0.980889
0.980986
0.981059
0.981097
0.981125
0.981009
0.980983
0.98095
0.980881
0.980786
0.980662
0.980514
0.980349
0.980178
0.980011
0.979859
0.97973
0.979629
0.97956
0.979525
0.979525
0.97956
0.979629
0.97973
0.97986
0.980012
0.980179
0.98035
0.980515
0.980662
0.980787
0.980881
0.98095
0.980984
0.98101
0.980884
0.98086
0.980832
0.980767
0.980675
0.98055
0.980399
0.980227
0.980046
0.979866
0.979699
0.979553
0.979436
0.979355
0.979313
0.979313
0.979355
0.979436
0.979553
0.979699
0.979867
0.980046
0.980227
0.980399
0.980551
0.980676
0.980768
0.980832
0.980861
0.980885
0.98075
0.980729
0.980707
0.980647
0.980558
0.980432
0.980277
0.980099
0.979909
0.979717
0.979534
0.979372
0.979241
0.979148
0.9791
0.9791
0.979148
0.979241
0.979373
0.979535
0.979718
0.979909
0.9801
0.980278
0.980433
0.980559
0.980648
0.980707
0.98073
0.980751
0.980613
0.980595
0.980578
0.980523
0.980437
0.980311
0.980153
0.979969
0.97977
0.979566
0.979369
0.979192
0.979046
0.978942
0.978889
0.978889
0.978942
0.979046
0.979192
0.97937
0.979567
0.979771
0.979969
0.980153
0.980311
0.980438
0.980524
0.980579
0.980595
0.980613
0.980474
0.980459
0.980448
0.980398
0.980315
0.980189
0.980028
0.979839
0.979632
0.979416
0.979205
0.979013
0.978854
0.978741
0.978682
0.978682
0.978741
0.978855
0.979014
0.979206
0.979417
0.979633
0.97984
0.980029
0.980189
0.980316
0.980399
0.980449
0.98046
0.980475
0.980337
0.980325
0.980319
0.980274
0.980194
0.980068
0.979906
0.979711
0.979495
0.979268
0.979044
0.978838
0.978668
0.978546
0.978483
0.978483
0.978547
0.978668
0.978839
0.979045
0.979269
0.979496
0.979712
0.979906
0.980069
0.980195
0.980275
0.98032
0.980326
0.980338
0.980205
0.980194
0.980193
0.980151
0.980075
0.97995
0.979786
0.979587
0.979362
0.979124
0.978887
0.978669
0.978489
0.978361
0.978294
0.978294
0.978361
0.978489
0.97867
0.978887
0.979124
0.979363
0.979587
0.979787
0.979951
0.980076
0.980152
0.980194
0.980195
0.980206
0.980078
0.980068
0.98007
0.980031
0.979958
0.979835
0.979669
0.979465
0.979232
0.978983
0.978735
0.978508
0.978319
0.978185
0.978116
0.978116
0.978185
0.97832
0.978508
0.978736
0.978984
0.979233
0.979466
0.97967
0.979835
0.979959
0.980032
0.980071
0.980069
0.980079
0.979956
0.979946
0.97995
0.979914
0.979843
0.979721
0.979555
0.979346
0.979106
0.978848
0.978591
0.978354
0.978159
0.97802
0.977949
0.977949
0.978021
0.97816
0.978355
0.978591
0.978848
0.979106
0.979346
0.979556
0.979722
0.979844
0.979915
0.979951
0.979947
0.979958
0.979841
0.97983
0.979834
0.979799
0.97973
0.979609
0.979441
0.979228
0.978982
0.978717
0.978453
0.97821
0.978009
0.977866
0.977792
0.977792
0.977866
0.978009
0.97821
0.978453
0.978718
0.978983
0.979229
0.979442
0.979609
0.979731
0.9798
0.979835
0.979831
0.979842
0.97973
0.979717
0.979722
0.979686
0.979618
0.979496
0.979327
0.97911
0.97886
0.978589
0.97832
0.978072
0.977866
0.977719
0.977643
0.977643
0.977719
0.977866
0.978072
0.97832
0.97859
0.97886
0.979111
0.979328
0.979497
0.979619
0.979687
0.979723
0.979718
0.979731
0.979624
0.979609
0.979612
0.979574
0.979505
0.979382
0.979211
0.97899
0.978736
0.978462
0.97819
0.977938
0.977729
0.977578
0.9775
0.9775
0.977579
0.977729
0.977939
0.97819
0.978463
0.978737
0.978991
0.979211
0.979383
0.979506
0.979575
0.979614
0.97961
0.979626
0.979521
0.979502
0.979504
0.979463
0.979391
0.979265
0.97909
0.978866
0.97861
0.978334
0.97806
0.977806
0.977594
0.977441
0.97736
0.977361
0.977441
0.977594
0.977807
0.97806
0.978335
0.97861
0.978867
0.97909
0.979265
0.979392
0.979464
0.979505
0.979504
0.979523
0.979416
0.979394
0.979393
0.979348
0.979272
0.979141
0.978963
0.978737
0.978478
0.978202
0.977927
0.977673
0.977458
0.977303
0.977222
0.977222
0.977304
0.977459
0.977673
0.977928
0.978203
0.978479
0.978737
0.978964
0.979142
0.979273
0.979349
0.979394
0.979395
0.979418
0.979301
0.979274
0.979272
0.979223
0.979144
0.979009
0.978828
0.978599
0.97834
0.978064
0.977789
0.977535
0.97732
0.977165
0.977083
0.977083
0.977165
0.97732
0.977535
0.97779
0.978064
0.97834
0.9786
0.978828
0.97901
0.979145
0.979224
0.979273
0.979275
0.979302
0.979166
0.979135
0.979133
0.979081
0.979
0.978863
0.97868
0.978451
0.978192
0.977917
0.977643
0.97739
0.977176
0.977021
0.976939
0.97694
0.977021
0.977176
0.97739
0.977644
0.977917
0.978192
0.978452
0.978681
0.978864
0.979001
0.979082
0.979134
0.979137
0.979167
0.979008
0.978973
0.978971
0.978917
0.978835
0.978698
0.978517
0.978289
0.978032
0.977758
0.977486
0.977234
0.977022
0.976869
0.976788
0.976788
0.976869
0.977022
0.977234
0.977486
0.977758
0.978032
0.97829
0.978517
0.978699
0.978836
0.978918
0.978972
0.978974
0.979009
0.978833
0.978794
0.978791
0.978734
0.97865
0.978512
0.978333
0.978109
0.977856
0.977585
0.977315
0.977064
0.976855
0.976704
0.976625
0.976625
0.976704
0.976855
0.977065
0.977315
0.977585
0.977857
0.97811
0.978333
0.978512
0.97865
0.978734
0.978792
0.978795
0.978834
0.978663
0.978617
0.97861
0.978544
0.978453
0.97831
0.97813
0.97791
0.977662
0.977395
0.977126
0.976877
0.976669
0.976521
0.976444
0.976444
0.976521
0.97667
0.976878
0.977127
0.977395
0.977662
0.977911
0.978131
0.97831
0.978454
0.978545
0.978611
0.978618
0.978664
0.978537
0.978481
0.978463
0.978379
0.978269
0.978109
0.977919
0.977696
0.977449
0.977185
0.976918
0.97667
0.976463
0.976315
0.97624
0.97624
0.976315
0.976463
0.97667
0.976918
0.977185
0.977449
0.977696
0.977919
0.978109
0.978269
0.97838
0.978464
0.978482
0.978538
0.978527
0.978452
0.978411
0.97829
0.97814
0.977942
0.977722
0.977479
0.977223
0.976956
0.976688
0.976439
0.976231
0.976084
0.976008
0.976008
0.976084
0.976231
0.976439
0.976689
0.976956
0.977224
0.97748
0.977723
0.977942
0.978141
0.978291
0.978411
0.978453
0.978528
0.978754
0.978649
0.97856
0.978369
0.978142
0.977868
0.977584
0.977291
0.977002
0.976716
0.976439
0.976185
0.975974
0.975823
0.975746
0.975746
0.975824
0.975974
0.976185
0.976439
0.976716
0.977002
0.977291
0.977584
0.977868
0.978143
0.97837
0.978561
0.97865
0.978755
0.979419
0.979265
0.979086
0.978768
0.978402
0.977988
0.977579
0.977184
0.97682
0.976484
0.976179
0.97591
0.975689
0.975533
0.975452
0.975452
0.975533
0.97569
0.97591
0.976179
0.976484
0.97682
0.977184
0.977579
0.977989
0.978403
0.97877
0.979087
0.979267
0.979421
0.980799
0.980572
0.980249
0.979724
0.979121
0.978463
0.977832
0.977249
0.976738
0.976299
0.975929
0.975622
0.975381
0.975212
0.975124
0.975124
0.975212
0.975381
0.975623
0.975929
0.9763
0.976739
0.977249
0.977833
0.978465
0.979123
0.979727
0.980252
0.980575
0.980801
0.982979
0.982669
0.982196
0.981436
0.980531
0.979522
0.978533
0.977628
0.976858
0.976228
0.975728
0.975343
0.975058
0.974865
0.974767
0.974767
0.974865
0.975058
0.975344
0.975729
0.976228
0.976859
0.977629
0.978535
0.979525
0.980533
0.981439
0.982199
0.982673
0.982983
0.9857
0.985313
0.984739
0.983802
0.982637
0.98128
0.979874
0.97852
0.977333
0.976375
0.975645
0.975112
0.97474
0.974503
0.974385
0.974386
0.974503
0.974741
0.975112
0.975646
0.976376
0.977335
0.978522
0.979877
0.981284
0.982641
0.983806
0.984743
0.985317
0.985703
0.988523
0.988081
0.987486
0.986477
0.985172
0.983577
0.98183
0.980035
0.978343
0.976895
0.975784
0.974993
0.974465
0.974144
0.973992
0.973992
0.974144
0.974465
0.974994
0.975785
0.976897
0.978346
0.980038
0.981834
0.983581
0.985176
0.98648
0.987489
0.988084
0.988526
0.990924
0.990464
0.989951
0.989013
0.987746
0.986091
0.984163
0.982056
0.979923
0.977937
0.976288
0.975085
0.974291
0.973823
0.973608
0.973608
0.973823
0.974292
0.975086
0.97629
0.97794
0.979926
0.982059
0.984167
0.986094
0.98775
0.989016
0.989953
0.990466
0.990925
0.992329
0.991901
0.991565
0.990855
0.98987
0.988416
0.986545
0.984325
0.981913
0.979489
0.977279
0.975513
0.974306
0.973592
0.97327
0.97327
0.973593
0.974307
0.975515
0.977282
0.979492
0.981916
0.984329
0.986548
0.988418
0.989872
0.990856
0.991566
0.991901
0.992329
0.992606
0.992213
0.992044
0.991593
0.991013
0.990022
0.988553
0.986523
0.984063
0.98138
0.978728
0.976382
0.97462
0.973532
0.973031
0.973032
0.973533
0.974621
0.976384
0.978731
0.981384
0.984066
0.986526
0.988556
0.990023
0.991013
0.991592
0.992043
0.992212
0.992604
0.992209
0.991818
0.991754
0.991481
0.991152
0.990564
0.989679
0.988208
0.986065
0.983384
0.980479
0.977676
0.975328
0.973741
0.972976
0.972976
0.973742
0.97533
0.977679
0.980482
0.983388
0.986068
0.98821
0.98968
0.990563
0.991151
0.99148
0.991753
0.991816
0.992206
0.99154
0.991127
0.991127
0.990962
0.990743
0.990357
0.989835
0.988945
0.98749
0.985215
0.982331
0.979267
0.976447
0.974319
0.973212
0.973213
0.97432
0.97645
0.97927
0.982334
0.985217
0.987491
0.988945
0.989835
0.990356
0.990742
0.990961
0.991125
0.991125
0.991538
0.990883
0.99043
0.990445
0.990314
0.990118
0.989805
0.989432
0.988858
0.988
0.986466
0.984029
0.980982
0.977898
0.975328
0.973868
0.973868
0.97533
0.9779
0.980984
0.984031
0.986467
0.988
0.988857
0.989431
0.989804
0.990117
0.990312
0.990443
0.990428
0.990881
0.990477
0.989968
0.989935
0.989755
0.989508
0.989163
0.988787
0.988337
0.987786
0.986839
0.985204
0.982604
0.979545
0.976773
0.975067
0.975068
0.976775
0.979547
0.982606
0.985205
0.986839
0.987785
0.988337
0.988786
0.989162
0.989507
0.989754
0.989934
0.989967
0.990476
0.990449
0.989864
0.989742
0.989451
0.989084
0.988623
0.988144
0.987661
0.987172
0.986525
0.985564
0.983806
0.981215
0.978594
0.976893
0.976894
0.978596
0.981217
0.983807
0.985564
0.986524
0.987171
0.98766
0.988143
0.988622
0.989084
0.98945
0.989741
0.989863
0.990448
0.990765
0.990089
0.989871
0.989451
0.98893
0.988309
0.987668
0.987029
0.986425
0.98584
0.985247
0.984283
0.982656
0.980654
0.979306
0.979307
0.980655
0.982656
0.984283
0.985246
0.985839
0.986424
0.987028
0.987667
0.988308
0.98893
0.989451
0.989871
0.990089
0.990765
0.991322
0.990552
0.990256
0.989714
0.989043
0.988257
0.987426
0.986565
0.985746
0.985053
0.984547
0.984121
0.983597
0.982726
0.982107
0.982107
0.982726
0.983596
0.98412
0.984546
0.985052
0.985745
0.986565
0.987426
0.988257
0.989043
0.989714
0.990256
0.990553
0.991322
0.992016
0.991161
0.990813
0.990175
0.989377
0.988426
0.987396
0.986305
0.985247
0.984345
0.983751
0.983621
0.984047
0.984564
0.984951
0.984951
0.984562
0.984044
0.983619
0.98375
0.984344
0.985247
0.986305
0.987397
0.988427
0.989377
0.990175
0.990814
0.991162
0.992016
0.992779
0.991852
0.991481
0.990774
0.989869
0.98875
0.987515
0.986209
0.984931
0.9838
0.98307
0.983087
0.984258
0.98603
0.987433
0.987431
0.986027
0.984255
0.983085
0.983068
0.9838
0.984931
0.986209
0.987515
0.98875
0.989869
0.990774
0.991481
0.991853
0.99278
0.993589
0.992599
0.992226
0.991468
0.990459
0.989167
0.987725
0.986211
0.984737
0.983417
0.982602
0.982762
0.984475
0.987107
0.989191
0.98919
0.987104
0.984472
0.982759
0.9826
0.983416
0.984736
0.986211
0.987725
0.989168
0.99046
0.991469
0.992227
0.9926
0.993589
0.994444
0.993396
0.993032
0.992227
0.991103
0.989637
0.987995
0.986271
0.984611
0.983155
0.982351
0.982754
0.984831
0.987819
0.990054
0.990053
0.987816
0.984827
0.982751
0.98235
0.983154
0.984611
0.986271
0.987995
0.989637
0.991104
0.992227
0.993033
0.993396
0.994444
0.995343
0.994235
0.993877
0.993017
0.99177
0.990135
0.988305
0.986377
0.984541
0.982997
0.982307
0.983042
0.985297
0.988174
0.99011
0.990109
0.98817
0.985294
0.98304
0.982305
0.982996
0.984541
0.986377
0.988305
0.990136
0.991771
0.993018
0.993878
0.994235
0.995343
0.99628
0.995105
0.994742
0.993816
0.992443
0.990649
0.988642
0.986526
0.984535
0.982964
0.982486
0.98355
0.985757
0.988174
0.98956
0.989559
0.988171
0.985754
0.983547
0.982484
0.982963
0.984534
0.986526
0.988642
0.990649
0.992444
0.993817
0.994742
0.995105
0.99628
0.997254
0.996007
0.995621
0.994618
0.99312
0.991173
0.988997
0.986711
0.9846
0.98309
0.982907
0.984191
0.98611
0.987843
0.988603
0.988602
0.987841
0.986108
0.984188
0.982905
0.983089
0.984599
0.986711
0.988998
0.991173
0.99312
0.994618
0.995621
0.996006
0.997254
0.998278
0.996949
0.996527
0.995438
0.993814
0.991714
0.989369
0.986927
0.984745
0.983397
0.983538
0.984871
0.986322
0.98725
0.987409
0.987409
0.987249
0.98632
0.984869
0.983536
0.983395
0.984744
0.986927
0.989369
0.991715
0.993814
0.995438
0.996527
0.996948
0.998277
0.999368
0.997949
0.997481
0.996299
0.994543
0.992281
0.989759
0.987174
0.98498
0.98388
0.984293
0.985507
0.986364
0.986492
0.986131
0.986131
0.986491
0.986363
0.985504
0.984291
0.983878
0.98498
0.987174
0.989759
0.992281
0.994543
0.996299
0.99748
0.997948
0.999367
1.00056
0.999043
0.998518
0.997233
0.995319
0.992869
0.990166
0.987457
0.985316
0.9845
0.985076
0.986029
0.986218
0.985649
0.984882
0.984882
0.985649
0.986217
0.986027
0.985074
0.984498
0.985315
0.987456
0.990166
0.992869
0.995318
0.997233
0.998517
0.999042
1.00056
1.00194
1.0003
0.999705
0.998288
0.996155
0.993466
0.990574
0.987772
0.985746
0.985193
0.985793
0.986366
0.98591
0.984775
0.9837
0.9837
0.984776
0.98591
0.986365
0.985791
0.98519
0.985744
0.987771
0.990574
0.993466
0.996155
0.998288
0.999704
1.0003
1.00193
1.00355
1.00178
1.00112
0.999533
0.997093
0.994083
0.990978
0.988117
0.98625
0.985881
0.986361
0.986471
0.985467
0.983887
0.982583
0.982584
0.983887
0.985467
0.98647
0.986359
0.985879
0.986249
0.988116
0.990977
0.994083
0.997093
0.999532
1.00112
1.00178
1.00355
1.00536
1.00345
1.00275
1.00099
0.998194
0.994783
0.991412
0.988508
0.986805
0.986509
0.98674
0.986343
0.984878
0.98297
0.981524
0.981524
0.98297
0.984878
0.986342
0.986738
0.986507
0.986803
0.988507
0.991411
0.994783
0.998194
1.00099
1.00275
1.00345
1.00536
1.0073
1.00527
1.00454
1.00263
0.999495
0.995657
0.99196
0.988985
0.987394
0.98705
0.986931
0.986008
0.98414
0.982007
0.980502
0.980502
0.982008
0.984141
0.986007
0.98693
0.987048
0.987392
0.988984
0.991959
0.995657
0.999495
1.00263
1.00454
1.00527
1.0073
1.00967
1.00747
1.00667
1.00454
1.00103
0.99676
0.992712
0.989607
0.988014
0.987509
0.986961
0.985503
0.983272
0.980987
0.97949
0.97949
0.980988
0.983272
0.985502
0.986959
0.987507
0.988012
0.989605
0.992712
0.99676
1.00103
1.00454
1.00667
1.00747
1.00967
1.01347
1.011
1.00989
1.00728
1.00304
0.998132
0.9937
0.990409
0.988673
0.987899
0.986859
0.984858
0.982297
0.979905
0.978456
0.978456
0.979905
0.982297
0.984858
0.986858
0.987897
0.988671
0.990407
0.9937
0.998132
1.00304
1.00728
1.00989
1.011
1.01347
1.02129
1.01831
1.01621
1.01217
1.00622
0.99999
0.994914
0.991373
0.989378
0.988224
0.986638
0.984092
0.981226
0.97876
0.977381
0.977381
0.97876
0.981226
0.984092
0.986637
0.988222
0.989376
0.991371
0.994914
0.99999
1.00622
1.01217
1.01621
1.01832
1.02129
1.03955
1.03569
1.0309
1.02263
1.01241
1.00302
0.99646
0.992438
0.990121
0.988487
0.986287
0.983194
0.980052
0.977551
0.97626
0.97626
0.977551
0.980052
0.983194
0.986286
0.988486
0.990119
0.992436
0.996459
1.00302
1.01241
1.02263
1.0309
1.03569
1.03955
1.08433
1.07886
1.0675
1.04783
1.02633
1.00903
0.998851
0.993649
0.990856
0.988674
0.985796
0.982149
0.978759
0.976273
0.975093
0.975093
0.976273
0.978759
0.982149
0.985795
0.988672
0.990854
0.993647
0.99885
1.00904
1.02634
1.04783
1.0675
1.07886
1.08433
1.19942
1.19046
1.16218
1.11111
1.0602
1.0227
1.00351
0.995346
0.991567
0.988737
0.985155
0.980952
0.977338
0.97492
0.973875
0.973875
0.97492
0.977338
0.980952
0.985155
0.988735
0.991565
0.995344
1.00351
1.02271
1.0602
1.11112
1.16219
1.19047
1.19943
1.46433
1.44998
1.39496
1.27654
1.14579
1.0558
1.0141
0.998595
0.992474
0.988642
0.984333
0.979621
0.975801
0.973482
0.972578
0.972578
0.973481
0.975801
0.979621
0.984332
0.98864
0.992472
0.998593
1.01409
1.0558
1.1458
1.27655
1.39498
1.44999
1.46435
1.84955
1.83148
1.76391
1.59569
1.35151
1.14015
1.03958
1.00581
0.994268
0.988502
0.983283
0.978169
0.97418
0.971943
0.971152
0.971152
0.971943
0.97418
0.978169
0.983283
0.988501
0.994266
1.00581
1.03958
1.14016
1.35153
1.59571
1.76393
1.8315
1.84957
2.20031
2.18226
2.12492
1.97517
1.68823
1.33652
1.10283
1.0226
0.998379
0.98866
0.982042
0.97658
0.972496
0.970284
0.96954
0.96954
0.970283
0.972495
0.97658
0.982042
0.988659
0.998377
1.0226
1.10283
1.33653
1.68825
1.97519
2.12494
2.18227
2.20033
2.37298
2.35879
2.32955
2.25445
2.04309
1.64783
1.24861
1.06073
1.00789
0.989845
0.980826
0.974823
0.970729
0.968482
0.967707
0.967707
0.968482
0.970728
0.974823
0.980826
0.989844
1.00789
1.06073
1.24863
1.64785
2.04311
2.25447
2.32956
2.3588
2.37299
2.41139
2.40038
2.38978
2.36054
2.26526
1.97506
1.49554
1.1458
1.02798
0.993503
0.980041
0.972963
0.968821
0.96652
0.965648
0.965648
0.966519
0.96882
0.972963
0.980041
0.993503
1.02798
1.14581
1.49555
1.97508
2.26527
2.36054
2.38978
2.40039
2.41139
2.39011
2.38173
2.3834
2.37538
2.3377
2.19604
1.78707
1.30253
1.06795
1.00217
0.980295
0.971158
0.966739
0.964378
0.963379
0.963379
0.964377
0.966738
0.971157
0.980295
1.00217
1.06795
1.30254
1.78709
2.19605
2.33771
2.37538
2.3834
2.38173
2.39011
2.33595
2.32885
2.33942
2.34793
2.34097
2.27949
2.02956
1.51999
1.14457
1.01883
0.982423
0.969659
0.96454
0.962048
0.960917
0.960916
0.962047
0.964539
0.969659
0.982423
1.01883
1.14458
1.52001
2.02958
2.2795
2.34097
2.34793
2.33941
2.32885
2.33595
2.27289
2.26581
2.28034
2.29799
2.3085
2.28932
2.16597
1.7545
1.26802
1.04787
0.987799
0.968841
0.962325
0.959535
0.958273
0.958272
0.959534
0.962324
0.96884
0.987799
1.04788
1.26803
1.75451
2.16598
2.28932
2.3085
2.29799
2.28034
2.26581
2.27289
2.22137
2.21448
2.22694
2.24126
2.26025
2.26528
2.2151
1.94771
1.42647
1.09756
0.997849